;
;   File sys.top  was generated
;   By user: bright (501)
;   On host:Drs-MacBook-Air.local 
;   At date:Tue. August  2 02:12:27 2026 
;
;   This is a standalone topology file
;
;   Created by:
;   ParmEd:       -c, VERSION4.3.1 
;   Executable:   -c
;   Library dir:  /opt/homebrew/Cellar/gromacs/2026.1/share/gromacs/top
;   Command line:
;     -c
;

[ defaults ]
; nbfunc        comb-rule       gen-pairs       fudgeLJ fudgeQQ
1               2               yes             0.5          0.83333333  

[ atomtypes ]
; name    at.num    mass    charge ptype  sigma      epsilon
HO             1   1.008000  0.00000000  A              0              0
OH             8  16.000000  0.00000000  A     0.30664734      0.8803136
CJ             6  12.010000  0.00000000  A     0.33996695      0.4577296
H1             1   1.008000  0.00000000  A      0.2471353      0.0656888
CT             6  12.010000  0.00000000  A     0.33996695      0.4577296
OS             8  16.000000  0.00000000  A     0.30000123        0.71128
H2             1   1.008000  0.00000000  A     0.22931733      0.0656888
N*             7  14.010000  0.00000000  A     0.32499985        0.71128
C1             6  12.010000  0.00000000  A     0.33996695       0.359824
H4             1   1.008000  0.00000000  A     0.25105526        0.06276
HA             1   1.008000  0.00000000  A     0.25996425        0.06276
CA             6  12.010000  0.00000000  A     0.33996695       0.359824
N2             7  14.010000  0.00000000  A     0.32499985        0.71128
H              1   1.008000  0.00000000  A     0.10690785      0.0656888
NC             7  14.010000  0.00000000  A     0.32499985        0.71128
C              6  12.010000  0.00000000  A     0.33996695       0.359824
O              8  16.000000  0.00000000  A     0.29599219        0.87864
C7             6  12.010000  0.00000000  A     0.33996695      0.4577296
HC             1   1.008000  0.00000000  A     0.26495328      0.0656888
P             15  30.970000  0.00000000  A     0.37417746         0.8368
O2             8  16.000000  0.00000000  A     0.29599219        0.87864
CK             6  12.010000  0.00000000  A     0.33996695       0.359824
H5             1   1.008000  0.00000000  A     0.24214627        0.06276
NB             7  14.010000  0.00000000  A     0.32499985        0.71128
CB             6  12.010000  0.00000000  A     0.33996695       0.359824
NA             7  14.010000  0.00000000  A     0.32499985        0.71128
C2             6  12.010000  0.00000000  A     0.33996695       0.359824
CQ             6  12.010000  0.00000000  A     0.33996695       0.359824
CM             6  12.010000  0.00000000  A     0.33996695       0.359824


[ moleculetype ]
; Name            nrexcl
system1          3

[ atoms ]
;   nr       type  resnr residue  atom   cgnr    charge       mass  typeB    chargeB      massB
; residue    1 DC5 rtp DC5 q -0.3
    1         HO      1    DC5   HO5'      1 0.44220000   1.008000   ; qtot 0.442200
    2         OH      1    DC5    O5'      2 -0.63180000  16.000000   ; qtot -0.189600
    3         CJ      1    DC5    C5'      3 -0.00690000  12.010000   ; qtot -0.196500
    4         H1      1    DC5    H5'      4 0.07540000   1.008000   ; qtot -0.121100
    5         H1      1    DC5   H5''      5 0.07540000   1.008000   ; qtot -0.045700
    6         CT      1    DC5    C4'      6 0.16290000  12.010000   ; qtot 0.117200
    7         H1      1    DC5    H4'      7 0.11760000   1.008000   ; qtot 0.234800
    8         OS      1    DC5    O4'      8 -0.36910000  16.000000   ; qtot -0.134300
    9         CT      1    DC5    C1'      9 -0.01160000  12.010000   ; qtot -0.145900
   10         H2      1    DC5    H1'     10 0.19630000   1.008000   ; qtot 0.050400
   11         N*      1    DC5     N1     11 -0.03390000  14.010000   ; qtot 0.016500
   12         C1      1    DC5     C6     12 -0.01830000  12.010000   ; qtot -0.001800
   13         H4      1    DC5     H6     13 0.22930000   1.008000   ; qtot 0.227500
   14         C1      1    DC5     C5     14 -0.52220000  12.010000   ; qtot -0.294700
   15         HA      1    DC5     H5     15 0.18630000   1.008000   ; qtot -0.108400
   16         CA      1    DC5     C4     16 0.84390000  12.010000   ; qtot 0.735500
   17         N2      1    DC5     N4     17 -0.97730000  14.010000   ; qtot -0.241800
   18          H      1    DC5    H41     18 0.43140000   1.008000   ; qtot 0.189600
   19          H      1    DC5    H42     19 0.43140000   1.008000   ; qtot 0.621000
   20         NC      1    DC5     N3     20 -0.77480000  14.010000   ; qtot -0.153800
   21          C      1    DC5     C2     21 0.79590000  12.010000   ; qtot 0.642100
   22          O      1    DC5     O2     22 -0.65480000  16.000000   ; qtot -0.012700
   23         C7      1    DC5    C3'     23 0.07130000  12.010000   ; qtot 0.058600
   24         H1      1    DC5    H3'     24 0.09850000   1.008000   ; qtot 0.157100
   25         CT      1    DC5    C2'     25 -0.08540000  12.010000   ; qtot 0.071700
   26         HC      1    DC5    H2'     26 0.07180000   1.008000   ; qtot 0.143500
   27         HC      1    DC5   H2''     27 0.07180000   1.008000   ; qtot 0.215300
   28         OS      1    DC5    O3'     28 -0.52320000  16.000000   ; qtot -0.307900
; residue    2 DG rtp DG q -1.0
   29          P      2     DG      P     29 1.16590000  30.970000   ; qtot 0.858000
   30         O2      2     DG    OP1     30 -0.77610000  16.000000   ; qtot 0.081900
   31         O2      2     DG    OP2     31 -0.77610000  16.000000   ; qtot -0.694200
   32         OS      2     DG    O5'     32 -0.49540000  16.000000   ; qtot -1.189600
   33         CJ      2     DG    C5'     33 -0.00690000  12.010000   ; qtot -1.196500
   34         H1      2     DG    H5'     34 0.07540000   1.008000   ; qtot -1.121100
   35         H1      2     DG   H5''     35 0.07540000   1.008000   ; qtot -1.045700
   36         CT      2     DG    C4'     36 0.16290000  12.010000   ; qtot -0.882800
   37         H1      2     DG    H4'     37 0.11760000   1.008000   ; qtot -0.765200
   38         OS      2     DG    O4'     38 -0.36910000  16.000000   ; qtot -1.134300
   39         CT      2     DG    C1'     39 0.03580000  12.010000   ; qtot -1.098500
   40         H2      2     DG    H1'     40 0.17460000   1.008000   ; qtot -0.923900
   41         N*      2     DG     N9     41 0.05770000  14.010000   ; qtot -0.866200
   42         CK      2     DG     C8     42 0.07360000  12.010000   ; qtot -0.792600
   43         H5      2     DG     H8     43 0.19970000   1.008000   ; qtot -0.592900
   44         NB      2     DG     N7     44 -0.57250000  14.010000   ; qtot -1.165400
   45         CB      2     DG     C5     45 0.19910000  12.010000   ; qtot -0.966300
   46          C      2     DG     C6     46 0.49180000  12.010000   ; qtot -0.474500
   47          O      2     DG     O6     47 -0.56990000  16.000000   ; qtot -1.044400
   48         NA      2     DG     N1     48 -0.50530000  14.010000   ; qtot -1.549700
   49          H      2     DG     H1     49 0.35200000   1.008000   ; qtot -1.197700
   50         CA      2     DG     C2     50 0.74320000  12.010000   ; qtot -0.454500
   51         N2      2     DG     N2     51 -0.92300000  14.010000   ; qtot -1.377500
   52          H      2     DG    H21     52 0.42350000   1.008000   ; qtot -0.954000
   53          H      2     DG    H22     53 0.42350000   1.008000   ; qtot -0.530500
   54         NC      2     DG     N3     54 -0.66360000  14.010000   ; qtot -1.194100
   55         CB      2     DG     C4     55 0.18140000  12.010000   ; qtot -1.012700
   56         C7      2     DG    C3'     56 0.07130000  12.010000   ; qtot -0.941400
   57         H1      2     DG    H3'     57 0.09850000   1.008000   ; qtot -0.842900
   58         CT      2     DG    C2'     58 -0.08540000  12.010000   ; qtot -0.928300
   59         HC      2     DG    H2'     59 0.07180000   1.008000   ; qtot -0.856500
   60         HC      2     DG   H2''     60 0.07180000   1.008000   ; qtot -0.784700
   61         OS      2     DG    O3'     61 -0.52320000  16.000000   ; qtot -1.307900
; residue    3 DC rtp DC q -1.0
   62          P      3     DC      P     62 1.16590000  30.970000   ; qtot -0.142000
   63         O2      3     DC    OP1     63 -0.77610000  16.000000   ; qtot -0.918100
   64         O2      3     DC    OP2     64 -0.77610000  16.000000   ; qtot -1.694200
   65         OS      3     DC    O5'     65 -0.49540000  16.000000   ; qtot -2.189600
   66         CJ      3     DC    C5'     66 -0.00690000  12.010000   ; qtot -2.196500
   67         H1      3     DC    H5'     67 0.07540000   1.008000   ; qtot -2.121100
   68         H1      3     DC   H5''     68 0.07540000   1.008000   ; qtot -2.045700
   69         CT      3     DC    C4'     69 0.16290000  12.010000   ; qtot -1.882800
   70         H1      3     DC    H4'     70 0.11760000   1.008000   ; qtot -1.765200
   71         OS      3     DC    O4'     71 -0.36910000  16.000000   ; qtot -2.134300
   72         CT      3     DC    C1'     72 -0.01160000  12.010000   ; qtot -2.145900
   73         H2      3     DC    H1'     73 0.19630000   1.008000   ; qtot -1.949600
   74         N*      3     DC     N1     74 -0.03390000  14.010000   ; qtot -1.983500
   75         C1      3     DC     C6     75 -0.01830000  12.010000   ; qtot -2.001800
   76         H4      3     DC     H6     76 0.22930000   1.008000   ; qtot -1.772500
   77         C1      3     DC     C5     77 -0.52220000  12.010000   ; qtot -2.294700
   78         HA      3     DC     H5     78 0.18630000   1.008000   ; qtot -2.108400
   79         CA      3     DC     C4     79 0.84390000  12.010000   ; qtot -1.264500
   80         N2      3     DC     N4     80 -0.97730000  14.010000   ; qtot -2.241800
   81          H      3     DC    H41     81 0.43140000   1.008000   ; qtot -1.810400
   82          H      3     DC    H42     82 0.43140000   1.008000   ; qtot -1.379000
   83         NC      3     DC     N3     83 -0.77480000  14.010000   ; qtot -2.153800
   84          C      3     DC     C2     84 0.79590000  12.010000   ; qtot -1.357900
   85          O      3     DC     O2     85 -0.65480000  16.000000   ; qtot -2.012700
   86         C7      3     DC    C3'     86 0.07130000  12.010000   ; qtot -1.941400
   87         H1      3     DC    H3'     87 0.09850000   1.008000   ; qtot -1.842900
   88         CT      3     DC    C2'     88 -0.08540000  12.010000   ; qtot -1.928300
   89         HC      3     DC    H2'     89 0.07180000   1.008000   ; qtot -1.856500
   90         HC      3     DC   H2''     90 0.07180000   1.008000   ; qtot -1.784700
   91         OS      3     DC    O3'     91 -0.52320000  16.000000   ; qtot -2.307900
; residue    4 DG rtp DG q -1.0
   92          P      4     DG      P     92 1.16590000  30.970000   ; qtot -1.142000
   93         O2      4     DG    OP1     93 -0.77610000  16.000000   ; qtot -1.918100
   94         O2      4     DG    OP2     94 -0.77610000  16.000000   ; qtot -2.694200
   95         OS      4     DG    O5'     95 -0.49540000  16.000000   ; qtot -3.189600
   96         CJ      4     DG    C5'     96 -0.00690000  12.010000   ; qtot -3.196500
   97         H1      4     DG    H5'     97 0.07540000   1.008000   ; qtot -3.121100
   98         H1      4     DG   H5''     98 0.07540000   1.008000   ; qtot -3.045700
   99         CT      4     DG    C4'     99 0.16290000  12.010000   ; qtot -2.882800
  100         H1      4     DG    H4'    100 0.11760000   1.008000   ; qtot -2.765200
  101         OS      4     DG    O4'    101 -0.36910000  16.000000   ; qtot -3.134300
  102         CT      4     DG    C1'    102 0.03580000  12.010000   ; qtot -3.098500
  103         H2      4     DG    H1'    103 0.17460000   1.008000   ; qtot -2.923900
  104         N*      4     DG     N9    104 0.05770000  14.010000   ; qtot -2.866200
  105         CK      4     DG     C8    105 0.07360000  12.010000   ; qtot -2.792600
  106         H5      4     DG     H8    106 0.19970000   1.008000   ; qtot -2.592900
  107         NB      4     DG     N7    107 -0.57250000  14.010000   ; qtot -3.165400
  108         CB      4     DG     C5    108 0.19910000  12.010000   ; qtot -2.966300
  109          C      4     DG     C6    109 0.49180000  12.010000   ; qtot -2.474500
  110          O      4     DG     O6    110 -0.56990000  16.000000   ; qtot -3.044400
  111         NA      4     DG     N1    111 -0.50530000  14.010000   ; qtot -3.549700
  112          H      4     DG     H1    112 0.35200000   1.008000   ; qtot -3.197700
  113         CA      4     DG     C2    113 0.74320000  12.010000   ; qtot -2.454500
  114         N2      4     DG     N2    114 -0.92300000  14.010000   ; qtot -3.377500
  115          H      4     DG    H21    115 0.42350000   1.008000   ; qtot -2.954000
  116          H      4     DG    H22    116 0.42350000   1.008000   ; qtot -2.530500
  117         NC      4     DG     N3    117 -0.66360000  14.010000   ; qtot -3.194100
  118         CB      4     DG     C4    118 0.18140000  12.010000   ; qtot -3.012700
  119         C7      4     DG    C3'    119 0.07130000  12.010000   ; qtot -2.941400
  120         H1      4     DG    H3'    120 0.09850000   1.008000   ; qtot -2.842900
  121         CT      4     DG    C2'    121 -0.08540000  12.010000   ; qtot -2.928300
  122         HC      4     DG    H2'    122 0.07180000   1.008000   ; qtot -2.856500
  123         HC      4     DG   H2''    123 0.07180000   1.008000   ; qtot -2.784700
  124         OS      4     DG    O3'    124 -0.52320000  16.000000   ; qtot -3.307900
; residue    5 DA rtp DA q -1.0
  125          P      5     DA      P    125 1.16590000  30.970000   ; qtot -2.142000
  126         O2      5     DA    OP1    126 -0.77610000  16.000000   ; qtot -2.918100
  127         O2      5     DA    OP2    127 -0.77610000  16.000000   ; qtot -3.694200
  128         OS      5     DA    O5'    128 -0.49540000  16.000000   ; qtot -4.189600
  129         CJ      5     DA    C5'    129 -0.00690000  12.010000   ; qtot -4.196500
  130         H1      5     DA    H5'    130 0.07540000   1.008000   ; qtot -4.121100
  131         H1      5     DA   H5''    131 0.07540000   1.008000   ; qtot -4.045700
  132         CT      5     DA    C4'    132 0.16290000  12.010000   ; qtot -3.882800
  133         H1      5     DA    H4'    133 0.11760000   1.008000   ; qtot -3.765200
  134         OS      5     DA    O4'    134 -0.36910000  16.000000   ; qtot -4.134300
  135         CT      5     DA    C1'    135 0.04310000  12.010000   ; qtot -4.091200
  136         H2      5     DA    H1'    136 0.18380000   1.008000   ; qtot -3.907400
  137         N*      5     DA     N9    137 -0.02680000  14.010000   ; qtot -3.934200
  138         C2      5     DA     C8    138 0.16070000  12.010000   ; qtot -3.773500
  139         H5      5     DA     H8    139 0.18770000   1.008000   ; qtot -3.585800
  140         NB      5     DA     N7    140 -0.61750000  14.010000   ; qtot -4.203300
  141         CB      5     DA     C5    141 0.07250000  12.010000   ; qtot -4.130800
  142         CA      5     DA     C6    142 0.68970000  12.010000   ; qtot -3.441100
  143         N2      5     DA     N6    143 -0.91230000  14.010000   ; qtot -4.353400
  144          H      5     DA    H61    144 0.41670000   1.008000   ; qtot -3.936700
  145          H      5     DA    H62    145 0.41670000   1.008000   ; qtot -3.520000
  146         NC      5     DA     N1    146 -0.76240000  14.010000   ; qtot -4.282400
  147         CQ      5     DA     C2    147 0.57160000  12.010000   ; qtot -3.710800
  148         H5      5     DA     H2    148 0.05980000   1.008000   ; qtot -3.651000
  149         NC      5     DA     N3    149 -0.74170000  14.010000   ; qtot -4.392700
  150         CB      5     DA     C4    150 0.38000000  12.010000   ; qtot -4.012700
  151         C7      5     DA    C3'    151 0.07130000  12.010000   ; qtot -3.941400
  152         H1      5     DA    H3'    152 0.09850000   1.008000   ; qtot -3.842900
  153         CT      5     DA    C2'    153 -0.08540000  12.010000   ; qtot -3.928300
  154         HC      5     DA    H2'    154 0.07180000   1.008000   ; qtot -3.856500
  155         HC      5     DA   H2''    155 0.07180000   1.008000   ; qtot -3.784700
  156         OS      5     DA    O3'    156 -0.52320000  16.000000   ; qtot -4.307900
; residue    6 DA rtp DA q -1.0
  157          P      6     DA      P    157 1.16590000  30.970000   ; qtot -3.142000
  158         O2      6     DA    OP1    158 -0.77610000  16.000000   ; qtot -3.918100
  159         O2      6     DA    OP2    159 -0.77610000  16.000000   ; qtot -4.694200
  160         OS      6     DA    O5'    160 -0.49540000  16.000000   ; qtot -5.189600
  161         CJ      6     DA    C5'    161 -0.00690000  12.010000   ; qtot -5.196500
  162         H1      6     DA    H5'    162 0.07540000   1.008000   ; qtot -5.121100
  163         H1      6     DA   H5''    163 0.07540000   1.008000   ; qtot -5.045700
  164         CT      6     DA    C4'    164 0.16290000  12.010000   ; qtot -4.882800
  165         H1      6     DA    H4'    165 0.11760000   1.008000   ; qtot -4.765200
  166         OS      6     DA    O4'    166 -0.36910000  16.000000   ; qtot -5.134300
  167         CT      6     DA    C1'    167 0.04310000  12.010000   ; qtot -5.091200
  168         H2      6     DA    H1'    168 0.18380000   1.008000   ; qtot -4.907400
  169         N*      6     DA     N9    169 -0.02680000  14.010000   ; qtot -4.934200
  170         C2      6     DA     C8    170 0.16070000  12.010000   ; qtot -4.773500
  171         H5      6     DA     H8    171 0.18770000   1.008000   ; qtot -4.585800
  172         NB      6     DA     N7    172 -0.61750000  14.010000   ; qtot -5.203300
  173         CB      6     DA     C5    173 0.07250000  12.010000   ; qtot -5.130800
  174         CA      6     DA     C6    174 0.68970000  12.010000   ; qtot -4.441100
  175         N2      6     DA     N6    175 -0.91230000  14.010000   ; qtot -5.353400
  176          H      6     DA    H61    176 0.41670000   1.008000   ; qtot -4.936700
  177          H      6     DA    H62    177 0.41670000   1.008000   ; qtot -4.520000
  178         NC      6     DA     N1    178 -0.76240000  14.010000   ; qtot -5.282400
  179         CQ      6     DA     C2    179 0.57160000  12.010000   ; qtot -4.710800
  180         H5      6     DA     H2    180 0.05980000   1.008000   ; qtot -4.651000
  181         NC      6     DA     N3    181 -0.74170000  14.010000   ; qtot -5.392700
  182         CB      6     DA     C4    182 0.38000000  12.010000   ; qtot -5.012700
  183         C7      6     DA    C3'    183 0.07130000  12.010000   ; qtot -4.941400
  184         H1      6     DA    H3'    184 0.09850000   1.008000   ; qtot -4.842900
  185         CT      6     DA    C2'    185 -0.08540000  12.010000   ; qtot -4.928300
  186         HC      6     DA    H2'    186 0.07180000   1.008000   ; qtot -4.856500
  187         HC      6     DA   H2''    187 0.07180000   1.008000   ; qtot -4.784700
  188         OS      6     DA    O3'    188 -0.52320000  16.000000   ; qtot -5.307900
; residue    7 DT rtp DT q -1.0
  189          P      7     DT      P    189 1.16590000  30.970000   ; qtot -4.142000
  190         O2      7     DT    OP1    190 -0.77610000  16.000000   ; qtot -4.918100
  191         O2      7     DT    OP2    191 -0.77610000  16.000000   ; qtot -5.694200
  192         OS      7     DT    O5'    192 -0.49540000  16.000000   ; qtot -6.189600
  193         CJ      7     DT    C5'    193 -0.00690000  12.010000   ; qtot -6.196500
  194         H1      7     DT    H5'    194 0.07540000   1.008000   ; qtot -6.121100
  195         H1      7     DT   H5''    195 0.07540000   1.008000   ; qtot -6.045700
  196         CT      7     DT    C4'    196 0.16290000  12.010000   ; qtot -5.882800
  197         H1      7     DT    H4'    197 0.11760000   1.008000   ; qtot -5.765200
  198         OS      7     DT    O4'    198 -0.36910000  16.000000   ; qtot -6.134300
  199         CT      7     DT    C1'    199 0.06800000  12.010000   ; qtot -6.066300
  200         H2      7     DT    H1'    200 0.18040000   1.008000   ; qtot -5.885900
  201         N*      7     DT     N1    201 -0.02390000  14.010000   ; qtot -5.909800
  202         CM      7     DT     C6    202 -0.22090000  12.010000   ; qtot -6.130700
  203         H4      7     DT     H6    203 0.26070000   1.008000   ; qtot -5.870000
  204         CM      7     DT     C5    204 0.00250000  12.010000   ; qtot -5.867500
  205         CT      7     DT     C7    205 -0.22690000  12.010000   ; qtot -6.094400
  206         HC      7     DT    H71    206 0.07700000   1.008000   ; qtot -6.017400
  207         HC      7     DT    H72    207 0.07700000   1.008000   ; qtot -5.940400
  208         HC      7     DT    H73    208 0.07700000   1.008000   ; qtot -5.863400
  209          C      7     DT     C4    209 0.51940000  12.010000   ; qtot -5.344000
  210          O      7     DT     O4    210 -0.55630000  16.000000   ; qtot -5.900300
  211         NA      7     DT     N3    211 -0.43400000  14.010000   ; qtot -6.334300
  212          H      7     DT     H3    212 0.34200000   1.008000   ; qtot -5.992300
  213          C      7     DT     C2    213 0.56770000  12.010000   ; qtot -5.424600
  214          O      7     DT     O2    214 -0.58810000  16.000000   ; qtot -6.012700
  215         C7      7     DT    C3'    215 0.07130000  12.010000   ; qtot -5.941400
  216         H1      7     DT    H3'    216 0.09850000   1.008000   ; qtot -5.842900
  217         CT      7     DT    C2'    217 -0.08540000  12.010000   ; qtot -5.928300
  218         HC      7     DT    H2'    218 0.07180000   1.008000   ; qtot -5.856500
  219         HC      7     DT   H2''    219 0.07180000   1.008000   ; qtot -5.784700
  220         OS      7     DT    O3'    220 -0.52320000  16.000000   ; qtot -6.307900
; residue    8 DT rtp DT q -1.0
  221          P      8     DT      P    221 1.16590000  30.970000   ; qtot -5.142000
  222         O2      8     DT    OP1    222 -0.77610000  16.000000   ; qtot -5.918100
  223         O2      8     DT    OP2    223 -0.77610000  16.000000   ; qtot -6.694200
  224         OS      8     DT    O5'    224 -0.49540000  16.000000   ; qtot -7.189600
  225         CJ      8     DT    C5'    225 -0.00690000  12.010000   ; qtot -7.196500
  226         H1      8     DT    H5'    226 0.07540000   1.008000   ; qtot -7.121100
  227         H1      8     DT   H5''    227 0.07540000   1.008000   ; qtot -7.045700
  228         CT      8     DT    C4'    228 0.16290000  12.010000   ; qtot -6.882800
  229         H1      8     DT    H4'    229 0.11760000   1.008000   ; qtot -6.765200
  230         OS      8     DT    O4'    230 -0.36910000  16.000000   ; qtot -7.134300
  231         CT      8     DT    C1'    231 0.06800000  12.010000   ; qtot -7.066300
  232         H2      8     DT    H1'    232 0.18040000   1.008000   ; qtot -6.885900
  233         N*      8     DT     N1    233 -0.02390000  14.010000   ; qtot -6.909800
  234         CM      8     DT     C6    234 -0.22090000  12.010000   ; qtot -7.130700
  235         H4      8     DT     H6    235 0.26070000   1.008000   ; qtot -6.870000
  236         CM      8     DT     C5    236 0.00250000  12.010000   ; qtot -6.867500
  237         CT      8     DT     C7    237 -0.22690000  12.010000   ; qtot -7.094400
  238         HC      8     DT    H71    238 0.07700000   1.008000   ; qtot -7.017400
  239         HC      8     DT    H72    239 0.07700000   1.008000   ; qtot -6.940400
  240         HC      8     DT    H73    240 0.07700000   1.008000   ; qtot -6.863400
  241          C      8     DT     C4    241 0.51940000  12.010000   ; qtot -6.344000
  242          O      8     DT     O4    242 -0.55630000  16.000000   ; qtot -6.900300
  243         NA      8     DT     N3    243 -0.43400000  14.010000   ; qtot -7.334300
  244          H      8     DT     H3    244 0.34200000   1.008000   ; qtot -6.992300
  245          C      8     DT     C2    245 0.56770000  12.010000   ; qtot -6.424600
  246          O      8     DT     O2    246 -0.58810000  16.000000   ; qtot -7.012700
  247         C7      8     DT    C3'    247 0.07130000  12.010000   ; qtot -6.941400
  248         H1      8     DT    H3'    248 0.09850000   1.008000   ; qtot -6.842900
  249         CT      8     DT    C2'    249 -0.08540000  12.010000   ; qtot -6.928300
  250         HC      8     DT    H2'    250 0.07180000   1.008000   ; qtot -6.856500
  251         HC      8     DT   H2''    251 0.07180000   1.008000   ; qtot -6.784700
  252         OS      8     DT    O3'    252 -0.52320000  16.000000   ; qtot -7.307900
; residue    9 DC rtp DC q -1.0
  253          P      9     DC      P    253 1.16590000  30.970000   ; qtot -6.142000
  254         O2      9     DC    OP1    254 -0.77610000  16.000000   ; qtot -6.918100
  255         O2      9     DC    OP2    255 -0.77610000  16.000000   ; qtot -7.694200
  256         OS      9     DC    O5'    256 -0.49540000  16.000000   ; qtot -8.189600
  257         CJ      9     DC    C5'    257 -0.00690000  12.010000   ; qtot -8.196500
  258         H1      9     DC    H5'    258 0.07540000   1.008000   ; qtot -8.121100
  259         H1      9     DC   H5''    259 0.07540000   1.008000   ; qtot -8.045700
  260         CT      9     DC    C4'    260 0.16290000  12.010000   ; qtot -7.882800
  261         H1      9     DC    H4'    261 0.11760000   1.008000   ; qtot -7.765200
  262         OS      9     DC    O4'    262 -0.36910000  16.000000   ; qtot -8.134300
  263         CT      9     DC    C1'    263 -0.01160000  12.010000   ; qtot -8.145900
  264         H2      9     DC    H1'    264 0.19630000   1.008000   ; qtot -7.949600
  265         N*      9     DC     N1    265 -0.03390000  14.010000   ; qtot -7.983500
  266         C1      9     DC     C6    266 -0.01830000  12.010000   ; qtot -8.001800
  267         H4      9     DC     H6    267 0.22930000   1.008000   ; qtot -7.772500
  268         C1      9     DC     C5    268 -0.52220000  12.010000   ; qtot -8.294700
  269         HA      9     DC     H5    269 0.18630000   1.008000   ; qtot -8.108400
  270         CA      9     DC     C4    270 0.84390000  12.010000   ; qtot -7.264500
  271         N2      9     DC     N4    271 -0.97730000  14.010000   ; qtot -8.241800
  272          H      9     DC    H41    272 0.43140000   1.008000   ; qtot -7.810400
  273          H      9     DC    H42    273 0.43140000   1.008000   ; qtot -7.379000
  274         NC      9     DC     N3    274 -0.77480000  14.010000   ; qtot -8.153800
  275          C      9     DC     C2    275 0.79590000  12.010000   ; qtot -7.357900
  276          O      9     DC     O2    276 -0.65480000  16.000000   ; qtot -8.012700
  277         C7      9     DC    C3'    277 0.07130000  12.010000   ; qtot -7.941400
  278         H1      9     DC    H3'    278 0.09850000   1.008000   ; qtot -7.842900
  279         CT      9     DC    C2'    279 -0.08540000  12.010000   ; qtot -7.928300
  280         HC      9     DC    H2'    280 0.07180000   1.008000   ; qtot -7.856500
  281         HC      9     DC   H2''    281 0.07180000   1.008000   ; qtot -7.784700
  282         OS      9     DC    O3'    282 -0.52320000  16.000000   ; qtot -8.307900
; residue   10 DG rtp DG q -1.0
  283          P     10     DG      P    283 1.16590000  30.970000   ; qtot -7.142000
  284         O2     10     DG    OP1    284 -0.77610000  16.000000   ; qtot -7.918100
  285         O2     10     DG    OP2    285 -0.77610000  16.000000   ; qtot -8.694200
  286         OS     10     DG    O5'    286 -0.49540000  16.000000   ; qtot -9.189600
  287         CJ     10     DG    C5'    287 -0.00690000  12.010000   ; qtot -9.196500
  288         H1     10     DG    H5'    288 0.07540000   1.008000   ; qtot -9.121100
  289         H1     10     DG   H5''    289 0.07540000   1.008000   ; qtot -9.045700
  290         CT     10     DG    C4'    290 0.16290000  12.010000   ; qtot -8.882800
  291         H1     10     DG    H4'    291 0.11760000   1.008000   ; qtot -8.765200
  292         OS     10     DG    O4'    292 -0.36910000  16.000000   ; qtot -9.134300
  293         CT     10     DG    C1'    293 0.03580000  12.010000   ; qtot -9.098500
  294         H2     10     DG    H1'    294 0.17460000   1.008000   ; qtot -8.923900
  295         N*     10     DG     N9    295 0.05770000  14.010000   ; qtot -8.866200
  296         CK     10     DG     C8    296 0.07360000  12.010000   ; qtot -8.792600
  297         H5     10     DG     H8    297 0.19970000   1.008000   ; qtot -8.592900
  298         NB     10     DG     N7    298 -0.57250000  14.010000   ; qtot -9.165400
  299         CB     10     DG     C5    299 0.19910000  12.010000   ; qtot -8.966300
  300          C     10     DG     C6    300 0.49180000  12.010000   ; qtot -8.474500
  301          O     10     DG     O6    301 -0.56990000  16.000000   ; qtot -9.044400
  302         NA     10     DG     N1    302 -0.50530000  14.010000   ; qtot -9.549700
  303          H     10     DG     H1    303 0.35200000   1.008000   ; qtot -9.197700
  304         CA     10     DG     C2    304 0.74320000  12.010000   ; qtot -8.454500
  305         N2     10     DG     N2    305 -0.92300000  14.010000   ; qtot -9.377500
  306          H     10     DG    H21    306 0.42350000   1.008000   ; qtot -8.954000
  307          H     10     DG    H22    307 0.42350000   1.008000   ; qtot -8.530500
  308         NC     10     DG     N3    308 -0.66360000  14.010000   ; qtot -9.194100
  309         CB     10     DG     C4    309 0.18140000  12.010000   ; qtot -9.012700
  310         C7     10     DG    C3'    310 0.07130000  12.010000   ; qtot -8.941400
  311         H1     10     DG    H3'    311 0.09850000   1.008000   ; qtot -8.842900
  312         CT     10     DG    C2'    312 -0.08540000  12.010000   ; qtot -8.928300
  313         HC     10     DG    H2'    313 0.07180000   1.008000   ; qtot -8.856500
  314         HC     10     DG   H2''    314 0.07180000   1.008000   ; qtot -8.784700
  315         OS     10     DG    O3'    315 -0.52320000  16.000000   ; qtot -9.307900
; residue   11 DC rtp DC q -1.0
  316          P     11     DC      P    316 1.16590000  30.970000   ; qtot -8.142000
  317         O2     11     DC    OP1    317 -0.77610000  16.000000   ; qtot -8.918100
  318         O2     11     DC    OP2    318 -0.77610000  16.000000   ; qtot -9.694200
  319         OS     11     DC    O5'    319 -0.49540000  16.000000   ; qtot -10.189600
  320         CJ     11     DC    C5'    320 -0.00690000  12.010000   ; qtot -10.196500
  321         H1     11     DC    H5'    321 0.07540000   1.008000   ; qtot -10.121100
  322         H1     11     DC   H5''    322 0.07540000   1.008000   ; qtot -10.045700
  323         CT     11     DC    C4'    323 0.16290000  12.010000   ; qtot -9.882800
  324         H1     11     DC    H4'    324 0.11760000   1.008000   ; qtot -9.765200
  325         OS     11     DC    O4'    325 -0.36910000  16.000000   ; qtot -10.134300
  326         CT     11     DC    C1'    326 -0.01160000  12.010000   ; qtot -10.145900
  327         H2     11     DC    H1'    327 0.19630000   1.008000   ; qtot -9.949600
  328         N*     11     DC     N1    328 -0.03390000  14.010000   ; qtot -9.983500
  329         C1     11     DC     C6    329 -0.01830000  12.010000   ; qtot -10.001800
  330         H4     11     DC     H6    330 0.22930000   1.008000   ; qtot -9.772500
  331         C1     11     DC     C5    331 -0.52220000  12.010000   ; qtot -10.294700
  332         HA     11     DC     H5    332 0.18630000   1.008000   ; qtot -10.108400
  333         CA     11     DC     C4    333 0.84390000  12.010000   ; qtot -9.264500
  334         N2     11     DC     N4    334 -0.97730000  14.010000   ; qtot -10.241800
  335          H     11     DC    H41    335 0.43140000   1.008000   ; qtot -9.810400
  336          H     11     DC    H42    336 0.43140000   1.008000   ; qtot -9.379000
  337         NC     11     DC     N3    337 -0.77480000  14.010000   ; qtot -10.153800
  338          C     11     DC     C2    338 0.79590000  12.010000   ; qtot -9.357900
  339          O     11     DC     O2    339 -0.65480000  16.000000   ; qtot -10.012700
  340         C7     11     DC    C3'    340 0.07130000  12.010000   ; qtot -9.941400
  341         H1     11     DC    H3'    341 0.09850000   1.008000   ; qtot -9.842900
  342         CT     11     DC    C2'    342 -0.08540000  12.010000   ; qtot -9.928300
  343         HC     11     DC    H2'    343 0.07180000   1.008000   ; qtot -9.856500
  344         HC     11     DC   H2''    344 0.07180000   1.008000   ; qtot -9.784700
  345         OS     11     DC    O3'    345 -0.52320000  16.000000   ; qtot -10.307900
; residue   12 DG3 rtp DG3 q -0.7
  346          P     12    DG3      P    346 1.16590000  30.970000   ; qtot -9.142000
  347         O2     12    DG3    OP1    347 -0.77610000  16.000000   ; qtot -9.918100
  348         O2     12    DG3    OP2    348 -0.77610000  16.000000   ; qtot -10.694200
  349         OS     12    DG3    O5'    349 -0.49540000  16.000000   ; qtot -11.189600
  350         CJ     12    DG3    C5'    350 -0.00690000  12.010000   ; qtot -11.196500
  351         H1     12    DG3    H5'    351 0.07540000   1.008000   ; qtot -11.121100
  352         H1     12    DG3   H5''    352 0.07540000   1.008000   ; qtot -11.045700
  353         CT     12    DG3    C4'    353 0.16290000  12.010000   ; qtot -10.882800
  354         H1     12    DG3    H4'    354 0.11760000   1.008000   ; qtot -10.765200
  355         OS     12    DG3    O4'    355 -0.36910000  16.000000   ; qtot -11.134300
  356         CT     12    DG3    C1'    356 0.03580000  12.010000   ; qtot -11.098500
  357         H2     12    DG3    H1'    357 0.17460000   1.008000   ; qtot -10.923900
  358         N*     12    DG3     N9    358 0.05770000  14.010000   ; qtot -10.866200
  359         CK     12    DG3     C8    359 0.07360000  12.010000   ; qtot -10.792600
  360         H5     12    DG3     H8    360 0.19970000   1.008000   ; qtot -10.592900
  361         NB     12    DG3     N7    361 -0.57250000  14.010000   ; qtot -11.165400
  362         CB     12    DG3     C5    362 0.19910000  12.010000   ; qtot -10.966300
  363          C     12    DG3     C6    363 0.49180000  12.010000   ; qtot -10.474500
  364          O     12    DG3     O6    364 -0.56990000  16.000000   ; qtot -11.044400
  365         NA     12    DG3     N1    365 -0.50530000  14.010000   ; qtot -11.549700
  366          H     12    DG3     H1    366 0.35200000   1.008000   ; qtot -11.197700
  367         CA     12    DG3     C2    367 0.74320000  12.010000   ; qtot -10.454500
  368         N2     12    DG3     N2    368 -0.92300000  14.010000   ; qtot -11.377500
  369          H     12    DG3    H21    369 0.42350000   1.008000   ; qtot -10.954000
  370          H     12    DG3    H22    370 0.42350000   1.008000   ; qtot -10.530500
  371         NC     12    DG3     N3    371 -0.66360000  14.010000   ; qtot -11.194100
  372         CB     12    DG3     C4    372 0.18140000  12.010000   ; qtot -11.012700
  373         C7     12    DG3    C3'    373 0.07130000  12.010000   ; qtot -10.941400
  374         H1     12    DG3    H3'    374 0.09850000   1.008000   ; qtot -10.842900
  375         CT     12    DG3    C2'    375 -0.08540000  12.010000   ; qtot -10.928300
  376         HC     12    DG3    H2'    376 0.07180000   1.008000   ; qtot -10.856500
  377         HC     12    DG3   H2''    377 0.07180000   1.008000   ; qtot -10.784700
  378         OH     12    DG3    O3'    378 -0.65490000  16.000000   ; qtot -11.439600
  379         HO     12    DG3   HO3'    379 0.43960000   1.008000   ; qtot -11.000000

[ bonds ]
;    ai     aj funct         c0         c1         c2         c3
     28     29     1   0.16100 192464.000000
     23     25     1   0.15260 259408.000000
     23     28     1   0.14100 267776.000000
     21     22     1   0.12290 476976.000000
     20     21     1   0.13580 382417.600000
     16     17     1   0.13400 402500.800000
     16     20     1   0.13390 404174.400000
     14     16     1   0.14330 357313.600000
     12     14     1   0.13500 459403.200000
     11     12     1   0.13650 374886.400000
     11     21     1   0.13830 354803.200000
      9     11     1   0.14750 282001.600000
      9     25     1   0.15260 259408.000000
      8      9     1   0.14100 267776.000000
      6      8     1   0.14100 267776.000000
      6     23     1   0.15260 259408.000000
      3      6     1   0.15260 259408.000000
      2      3     1   0.14100 267776.000000
     61     62     1   0.16100 192464.000000
     56     58     1   0.15260 259408.000000
     56     61     1   0.14100 267776.000000
     54     55     1   0.13540 385764.800000
     50     51     1   0.13400 402500.800000
     50     54     1   0.13390 404174.400000
     48     50     1   0.13810 357313.600000
     46     47     1   0.12290 476976.000000
     46     48     1   0.13880 349782.400000
     45     46     1   0.14190 374049.600000
     45     55     1   0.13700 435136.000000
     44     45     1   0.13910 346435.200000
     42     44     1   0.13040 442667.200000
     41     42     1   0.13710 368192.000000
     41     55     1   0.13740 364844.800000
     39     41     1   0.14750 282001.600000
     39     58     1   0.15260 259408.000000
     38     39     1   0.14100 267776.000000
     36     38     1   0.14100 267776.000000
     36     56     1   0.15260 259408.000000
     33     36     1   0.15260 259408.000000
     32     33     1   0.14100 267776.000000
     29     30     1   0.14800 439320.000000
     29     31     1   0.14800 439320.000000
     29     32     1   0.16100 192464.000000
     91     92     1   0.16100 192464.000000
     86     88     1   0.15260 259408.000000
     86     91     1   0.14100 267776.000000
     84     85     1   0.12290 476976.000000
     83     84     1   0.13580 382417.600000
     79     80     1   0.13400 402500.800000
     79     83     1   0.13390 404174.400000
     77     79     1   0.14330 357313.600000
     75     77     1   0.13500 459403.200000
     74     75     1   0.13650 374886.400000
     74     84     1   0.13830 354803.200000
     72     74     1   0.14750 282001.600000
     72     88     1   0.15260 259408.000000
     71     72     1   0.14100 267776.000000
     69     71     1   0.14100 267776.000000
     69     86     1   0.15260 259408.000000
     66     69     1   0.15260 259408.000000
     65     66     1   0.14100 267776.000000
     62     63     1   0.14800 439320.000000
     62     64     1   0.14800 439320.000000
     62     65     1   0.16100 192464.000000
    124    125     1   0.16100 192464.000000
    119    121     1   0.15260 259408.000000
    119    124     1   0.14100 267776.000000
    117    118     1   0.13540 385764.800000
    113    114     1   0.13400 402500.800000
    113    117     1   0.13390 404174.400000
    111    113     1   0.13810 357313.600000
    109    110     1   0.12290 476976.000000
    109    111     1   0.13880 349782.400000
    108    109     1   0.14190 374049.600000
    108    118     1   0.13700 435136.000000
    107    108     1   0.13910 346435.200000
    105    107     1   0.13040 442667.200000
    104    105     1   0.13710 368192.000000
    104    118     1   0.13740 364844.800000
    102    104     1   0.14750 282001.600000
    102    121     1   0.15260 259408.000000
    101    102     1   0.14100 267776.000000
     99    101     1   0.14100 267776.000000
     99    119     1   0.15260 259408.000000
     96     99     1   0.15260 259408.000000
     95     96     1   0.14100 267776.000000
     92     93     1   0.14800 439320.000000
     92     94     1   0.14800 439320.000000
     92     95     1   0.16100 192464.000000
    156    157     1   0.16100 192464.000000
    151    153     1   0.15260 259408.000000
    151    156     1   0.14100 267776.000000
    149    150     1   0.13540 385764.800000
    147    149     1   0.13240 420073.600000
    146    147     1   0.13240 420073.600000
    142    143     1   0.13400 402500.800000
    142    146     1   0.13390 404174.400000
    141    142     1   0.14040 392459.200000
    141    150     1   0.13700 435136.000000
    140    141     1   0.13910 346435.200000
    138    140     1   0.13040 442667.200000
    137    138     1   0.13710 368192.000000
    137    150     1   0.13740 364844.800000
    135    137     1   0.14750 282001.600000
    135    153     1   0.15260 259408.000000
    134    135     1   0.14100 267776.000000
    132    134     1   0.14100 267776.000000
    132    151     1   0.15260 259408.000000
    129    132     1   0.15260 259408.000000
    128    129     1   0.14100 267776.000000
    125    126     1   0.14800 439320.000000
    125    127     1   0.14800 439320.000000
    125    128     1   0.16100 192464.000000
    188    189     1   0.16100 192464.000000
    183    185     1   0.15260 259408.000000
    183    188     1   0.14100 267776.000000
    181    182     1   0.13540 385764.800000
    179    181     1   0.13240 420073.600000
    178    179     1   0.13240 420073.600000
    174    175     1   0.13400 402500.800000
    174    178     1   0.13390 404174.400000
    173    174     1   0.14040 392459.200000
    173    182     1   0.13700 435136.000000
    172    173     1   0.13910 346435.200000
    170    172     1   0.13040 442667.200000
    169    170     1   0.13710 368192.000000
    169    182     1   0.13740 364844.800000
    167    169     1   0.14750 282001.600000
    167    185     1   0.15260 259408.000000
    166    167     1   0.14100 267776.000000
    164    166     1   0.14100 267776.000000
    164    183     1   0.15260 259408.000000
    161    164     1   0.15260 259408.000000
    160    161     1   0.14100 267776.000000
    157    158     1   0.14800 439320.000000
    157    159     1   0.14800 439320.000000
    157    160     1   0.16100 192464.000000
    220    221     1   0.16100 192464.000000
    215    217     1   0.15260 259408.000000
    215    220     1   0.14100 267776.000000
    213    214     1   0.12290 476976.000000
    211    213     1   0.13880 349782.400000
    209    210     1   0.12290 476976.000000
    209    211     1   0.13880 349782.400000
    204    205     1   0.15100 265265.600000
    204    209     1   0.14440 343088.000000
    202    204     1   0.13500 459403.200000
    201    202     1   0.13650 374886.400000
    201    213     1   0.13830 354803.200000
    199    201     1   0.14750 282001.600000
    199    217     1   0.15260 259408.000000
    198    199     1   0.14100 267776.000000
    196    198     1   0.14100 267776.000000
    196    215     1   0.15260 259408.000000
    193    196     1   0.15260 259408.000000
    192    193     1   0.14100 267776.000000
    189    190     1   0.14800 439320.000000
    189    191     1   0.14800 439320.000000
    189    192     1   0.16100 192464.000000
    252    253     1   0.16100 192464.000000
    247    249     1   0.15260 259408.000000
    247    252     1   0.14100 267776.000000
    245    246     1   0.12290 476976.000000
    243    245     1   0.13880 349782.400000
    241    242     1   0.12290 476976.000000
    241    243     1   0.13880 349782.400000
    236    237     1   0.15100 265265.600000
    236    241     1   0.14440 343088.000000
    234    236     1   0.13500 459403.200000
    233    234     1   0.13650 374886.400000
    233    245     1   0.13830 354803.200000
    231    233     1   0.14750 282001.600000
    231    249     1   0.15260 259408.000000
    230    231     1   0.14100 267776.000000
    228    230     1   0.14100 267776.000000
    228    247     1   0.15260 259408.000000
    225    228     1   0.15260 259408.000000
    224    225     1   0.14100 267776.000000
    221    222     1   0.14800 439320.000000
    221    223     1   0.14800 439320.000000
    221    224     1   0.16100 192464.000000
    282    283     1   0.16100 192464.000000
    277    279     1   0.15260 259408.000000
    277    282     1   0.14100 267776.000000
    275    276     1   0.12290 476976.000000
    274    275     1   0.13580 382417.600000
    270    271     1   0.13400 402500.800000
    270    274     1   0.13390 404174.400000
    268    270     1   0.14330 357313.600000
    266    268     1   0.13500 459403.200000
    265    266     1   0.13650 374886.400000
    265    275     1   0.13830 354803.200000
    263    265     1   0.14750 282001.600000
    263    279     1   0.15260 259408.000000
    262    263     1   0.14100 267776.000000
    260    262     1   0.14100 267776.000000
    260    277     1   0.15260 259408.000000
    257    260     1   0.15260 259408.000000
    256    257     1   0.14100 267776.000000
    253    254     1   0.14800 439320.000000
    253    255     1   0.14800 439320.000000
    253    256     1   0.16100 192464.000000
    315    316     1   0.16100 192464.000000
    310    312     1   0.15260 259408.000000
    310    315     1   0.14100 267776.000000
    308    309     1   0.13540 385764.800000
    304    305     1   0.13400 402500.800000
    304    308     1   0.13390 404174.400000
    302    304     1   0.13810 357313.600000
    300    301     1   0.12290 476976.000000
    300    302     1   0.13880 349782.400000
    299    300     1   0.14190 374049.600000
    299    309     1   0.13700 435136.000000
    298    299     1   0.13910 346435.200000
    296    298     1   0.13040 442667.200000
    295    296     1   0.13710 368192.000000
    295    309     1   0.13740 364844.800000
    293    295     1   0.14750 282001.600000
    293    312     1   0.15260 259408.000000
    292    293     1   0.14100 267776.000000
    290    292     1   0.14100 267776.000000
    290    310     1   0.15260 259408.000000
    287    290     1   0.15260 259408.000000
    286    287     1   0.14100 267776.000000
    283    284     1   0.14800 439320.000000
    283    285     1   0.14800 439320.000000
    283    286     1   0.16100 192464.000000
    345    346     1   0.16100 192464.000000
    340    342     1   0.15260 259408.000000
    340    345     1   0.14100 267776.000000
    338    339     1   0.12290 476976.000000
    337    338     1   0.13580 382417.600000
    333    334     1   0.13400 402500.800000
    333    337     1   0.13390 404174.400000
    331    333     1   0.14330 357313.600000
    329    331     1   0.13500 459403.200000
    328    329     1   0.13650 374886.400000
    328    338     1   0.13830 354803.200000
    326    328     1   0.14750 282001.600000
    326    342     1   0.15260 259408.000000
    325    326     1   0.14100 267776.000000
    323    325     1   0.14100 267776.000000
    323    340     1   0.15260 259408.000000
    320    323     1   0.15260 259408.000000
    319    320     1   0.14100 267776.000000
    316    317     1   0.14800 439320.000000
    316    318     1   0.14800 439320.000000
    316    319     1   0.16100 192464.000000
    373    375     1   0.15260 259408.000000
    373    378     1   0.14100 267776.000000
    371    372     1   0.13540 385764.800000
    367    368     1   0.13400 402500.800000
    367    371     1   0.13390 404174.400000
    365    367     1   0.13810 357313.600000
    363    364     1   0.12290 476976.000000
    363    365     1   0.13880 349782.400000
    362    363     1   0.14190 374049.600000
    362    372     1   0.13700 435136.000000
    361    362     1   0.13910 346435.200000
    359    361     1   0.13040 442667.200000
    358    359     1   0.13710 368192.000000
    358    372     1   0.13740 364844.800000
    356    358     1   0.14750 282001.600000
    356    375     1   0.15260 259408.000000
    355    356     1   0.14100 267776.000000
    353    355     1   0.14100 267776.000000
    353    373     1   0.15260 259408.000000
    350    353     1   0.15260 259408.000000
    349    350     1   0.14100 267776.000000
    346    347     1   0.14800 439320.000000
    346    348     1   0.14800 439320.000000
    346    349     1   0.16100 192464.000000
     25     26     1   0.10900 284512.000000
     25     27     1   0.10900 284512.000000
     23     24     1   0.10900 284512.000000
     17     18     1   0.10100 363171.200000
     17     19     1   0.10100 363171.200000
     14     15     1   0.10800 307105.600000
     12     13     1   0.10800 307105.600000
      9     10     1   0.10900 284512.000000
      6      7     1   0.10900 284512.000000
      3      4     1   0.10900 284512.000000
      3      5     1   0.10900 284512.000000
      1      2     1   0.09600 462750.400000
     58     59     1   0.10900 284512.000000
     58     60     1   0.10900 284512.000000
     56     57     1   0.10900 284512.000000
     51     52     1   0.10100 363171.200000
     51     53     1   0.10100 363171.200000
     48     49     1   0.10100 363171.200000
     42     43     1   0.10800 307105.600000
     39     40     1   0.10900 284512.000000
     36     37     1   0.10900 284512.000000
     33     34     1   0.10900 284512.000000
     33     35     1   0.10900 284512.000000
     88     89     1   0.10900 284512.000000
     88     90     1   0.10900 284512.000000
     86     87     1   0.10900 284512.000000
     80     81     1   0.10100 363171.200000
     80     82     1   0.10100 363171.200000
     77     78     1   0.10800 307105.600000
     75     76     1   0.10800 307105.600000
     72     73     1   0.10900 284512.000000
     69     70     1   0.10900 284512.000000
     66     67     1   0.10900 284512.000000
     66     68     1   0.10900 284512.000000
    121    122     1   0.10900 284512.000000
    121    123     1   0.10900 284512.000000
    119    120     1   0.10900 284512.000000
    114    115     1   0.10100 363171.200000
    114    116     1   0.10100 363171.200000
    111    112     1   0.10100 363171.200000
    105    106     1   0.10800 307105.600000
    102    103     1   0.10900 284512.000000
     99    100     1   0.10900 284512.000000
     96     97     1   0.10900 284512.000000
     96     98     1   0.10900 284512.000000
    153    154     1   0.10900 284512.000000
    153    155     1   0.10900 284512.000000
    151    152     1   0.10900 284512.000000
    147    148     1   0.10800 307105.600000
    143    144     1   0.10100 363171.200000
    143    145     1   0.10100 363171.200000
    138    139     1   0.10800 307105.600000
    135    136     1   0.10900 284512.000000
    132    133     1   0.10900 284512.000000
    129    130     1   0.10900 284512.000000
    129    131     1   0.10900 284512.000000
    185    186     1   0.10900 284512.000000
    185    187     1   0.10900 284512.000000
    183    184     1   0.10900 284512.000000
    179    180     1   0.10800 307105.600000
    175    176     1   0.10100 363171.200000
    175    177     1   0.10100 363171.200000
    170    171     1   0.10800 307105.600000
    167    168     1   0.10900 284512.000000
    164    165     1   0.10900 284512.000000
    161    162     1   0.10900 284512.000000
    161    163     1   0.10900 284512.000000
    217    218     1   0.10900 284512.000000
    217    219     1   0.10900 284512.000000
    215    216     1   0.10900 284512.000000
    211    212     1   0.10100 363171.200000
    205    206     1   0.10900 284512.000000
    205    207     1   0.10900 284512.000000
    205    208     1   0.10900 284512.000000
    202    203     1   0.10800 307105.600000
    199    200     1   0.10900 284512.000000
    196    197     1   0.10900 284512.000000
    193    194     1   0.10900 284512.000000
    193    195     1   0.10900 284512.000000
    249    250     1   0.10900 284512.000000
    249    251     1   0.10900 284512.000000
    247    248     1   0.10900 284512.000000
    243    244     1   0.10100 363171.200000
    237    238     1   0.10900 284512.000000
    237    239     1   0.10900 284512.000000
    237    240     1   0.10900 284512.000000
    234    235     1   0.10800 307105.600000
    231    232     1   0.10900 284512.000000
    228    229     1   0.10900 284512.000000
    225    226     1   0.10900 284512.000000
    225    227     1   0.10900 284512.000000
    279    280     1   0.10900 284512.000000
    279    281     1   0.10900 284512.000000
    277    278     1   0.10900 284512.000000
    271    272     1   0.10100 363171.200000
    271    273     1   0.10100 363171.200000
    268    269     1   0.10800 307105.600000
    266    267     1   0.10800 307105.600000
    263    264     1   0.10900 284512.000000
    260    261     1   0.10900 284512.000000
    257    258     1   0.10900 284512.000000
    257    259     1   0.10900 284512.000000
    312    313     1   0.10900 284512.000000
    312    314     1   0.10900 284512.000000
    310    311     1   0.10900 284512.000000
    305    306     1   0.10100 363171.200000
    305    307     1   0.10100 363171.200000
    302    303     1   0.10100 363171.200000
    296    297     1   0.10800 307105.600000
    293    294     1   0.10900 284512.000000
    290    291     1   0.10900 284512.000000
    287    288     1   0.10900 284512.000000
    287    289     1   0.10900 284512.000000
    342    343     1   0.10900 284512.000000
    342    344     1   0.10900 284512.000000
    340    341     1   0.10900 284512.000000
    334    335     1   0.10100 363171.200000
    334    336     1   0.10100 363171.200000
    331    332     1   0.10800 307105.600000
    329    330     1   0.10800 307105.600000
    326    327     1   0.10900 284512.000000
    323    324     1   0.10900 284512.000000
    320    321     1   0.10900 284512.000000
    320    322     1   0.10900 284512.000000
    378    379     1   0.09600 462750.400000
    375    376     1   0.10900 284512.000000
    375    377     1   0.10900 284512.000000
    373    374     1   0.10900 284512.000000
    368    369     1   0.10100 363171.200000
    368    370     1   0.10100 363171.200000
    365    366     1   0.10100 363171.200000
    359    360     1   0.10800 307105.600000
    356    357     1   0.10900 284512.000000
    353    354     1   0.10900 284512.000000
    350    351     1   0.10900 284512.000000
    350    352     1   0.10900 284512.000000

[ pairs ]
;    ai     aj funct         c0         c1         c2         c3
     28     33     1
     25     29     1
     23     30     1
     23     31     1
     23     32     1
     21     25     1
     17     21     1
     16     22     1
     14     21     1
     12     25     1
     12     20     1
     12     22     1
     12     17     1
     11     23     1
     11     16     1
      9     14     1
      9     20     1
      9     22     1
      9     28     1
      8     28     1
      8     12     1
      8     21     1
      6     11     1
      6     29     1
      3      9     1
      3     25     1
      3     28     1
      2      8     1
      2     23     1
     61     66     1
     58     62     1
     56     63     1
     56     64     1
     56     65     1
     55     58     1
     51     55     1
     48     55     1
     47     55     1
     47     50     1
     46     54     1
     46     51     1
     45     50     1
     44     47     1
     44     48     1
     44     54     1
     42     58     1
     42     54     1
     42     46     1
     41     56     1
     41     46     1
     41     50     1
     39     44     1
     39     45     1
     39     54     1
     39     61     1
     38     61     1
     38     42     1
     38     55     1
     36     41     1
     36     62     1
     33     39     1
     33     58     1
     33     61     1
     32     38     1
     32     56     1
     31     33     1
     30     33     1
     29     36     1
     91     96     1
     88     92     1
     86     93     1
     86     94     1
     86     95     1
     84     88     1
     80     84     1
     79     85     1
     77     84     1
     75     88     1
     75     83     1
     75     85     1
     75     80     1
     74     86     1
     74     79     1
     72     77     1
     72     83     1
     72     85     1
     72     91     1
     71     91     1
     71     75     1
     71     84     1
     69     74     1
     69     92     1
     66     72     1
     66     88     1
     66     91     1
     65     71     1
     65     86     1
     64     66     1
     63     66     1
     62     69     1
    124    129     1
    121    125     1
    119    126     1
    119    127     1
    119    128     1
    118    121     1
    114    118     1
    111    118     1
    110    118     1
    110    113     1
    109    117     1
    109    114     1
    108    113     1
    107    110     1
    107    111     1
    107    117     1
    105    121     1
    105    117     1
    105    109     1
    104    119     1
    104    109     1
    104    113     1
    102    107     1
    102    108     1
    102    117     1
    102    124     1
    101    124     1
    101    105     1
    101    118     1
     99    104     1
     99    125     1
     96    102     1
     96    121     1
     96    124     1
     95    101     1
     95    119     1
     94     96     1
     93     96     1
     92     99     1
    156    161     1
    153    157     1
    151    158     1
    151    159     1
    151    160     1
    150    153     1
    146    150     1
    143    150     1
    143    147     1
    142    149     1
    141    147     1
    140    143     1
    140    146     1
    140    149     1
    138    153     1
    138    149     1
    138    142     1
    137    151     1
    137    142     1
    137    147     1
    135    140     1
    135    141     1
    135    149     1
    135    156     1
    134    156     1
    134    138     1
    134    150     1
    132    137     1
    132    157     1
    129    135     1
    129    153     1
    129    156     1
    128    134     1
    128    151     1
    127    129     1
    126    129     1
    125    132     1
    188    193     1
    185    189     1
    183    190     1
    183    191     1
    183    192     1
    182    185     1
    178    182     1
    175    182     1
    175    179     1
    174    181     1
    173    179     1
    172    175     1
    172    178     1
    172    181     1
    170    185     1
    170    181     1
    170    174     1
    169    183     1
    169    174     1
    169    179     1
    167    172     1
    167    173     1
    167    181     1
    167    188     1
    166    188     1
    166    170     1
    166    182     1
    164    169     1
    164    189     1
    161    167     1
    161    185     1
    161    188     1
    160    166     1
    160    183     1
    159    161     1
    158    161     1
    157    164     1
    220    225     1
    217    221     1
    215    222     1
    215    223     1
    215    224     1
    213    217     1
    210    213     1
    209    214     1
    205    210     1
    205    211     1
    204    213     1
    202    217     1
    202    211     1
    202    214     1
    202    210     1
    201    215     1
    201    205     1
    201    209     1
    199    204     1
    199    211     1
    199    214     1
    199    220     1
    198    220     1
    198    202     1
    198    213     1
    196    201     1
    196    221     1
    193    199     1
    193    217     1
    193    220     1
    192    198     1
    192    215     1
    191    193     1
    190    193     1
    189    196     1
    252    257     1
    249    253     1
    247    254     1
    247    255     1
    247    256     1
    245    249     1
    242    245     1
    241    246     1
    237    242     1
    237    243     1
    236    245     1
    234    249     1
    234    243     1
    234    246     1
    234    242     1
    233    247     1
    233    237     1
    233    241     1
    231    236     1
    231    243     1
    231    246     1
    231    252     1
    230    252     1
    230    234     1
    230    245     1
    228    233     1
    228    253     1
    225    231     1
    225    249     1
    225    252     1
    224    230     1
    224    247     1
    223    225     1
    222    225     1
    221    228     1
    282    287     1
    279    283     1
    277    284     1
    277    285     1
    277    286     1
    275    279     1
    271    275     1
    270    276     1
    268    275     1
    266    279     1
    266    274     1
    266    276     1
    266    271     1
    265    277     1
    265    270     1
    263    268     1
    263    274     1
    263    276     1
    263    282     1
    262    282     1
    262    266     1
    262    275     1
    260    265     1
    260    283     1
    257    263     1
    257    279     1
    257    282     1
    256    262     1
    256    277     1
    255    257     1
    254    257     1
    253    260     1
    315    320     1
    312    316     1
    310    317     1
    310    318     1
    310    319     1
    309    312     1
    305    309     1
    302    309     1
    301    309     1
    301    304     1
    300    308     1
    300    305     1
    299    304     1
    298    301     1
    298    302     1
    298    308     1
    296    312     1
    296    308     1
    296    300     1
    295    310     1
    295    300     1
    295    304     1
    293    298     1
    293    299     1
    293    308     1
    293    315     1
    292    315     1
    292    296     1
    292    309     1
    290    295     1
    290    316     1
    287    293     1
    287    312     1
    287    315     1
    286    292     1
    286    310     1
    285    287     1
    284    287     1
    283    290     1
    345    350     1
    342    346     1
    340    347     1
    340    348     1
    340    349     1
    338    342     1
    334    338     1
    333    339     1
    331    338     1
    329    342     1
    329    337     1
    329    339     1
    329    334     1
    328    340     1
    328    333     1
    326    331     1
    326    337     1
    326    339     1
    326    345     1
    325    345     1
    325    329     1
    325    338     1
    323    328     1
    323    346     1
    320    326     1
    320    342     1
    320    345     1
    319    325     1
    319    340     1
    318    320     1
    317    320     1
    316    323     1
    372    375     1
    368    372     1
    365    372     1
    364    372     1
    364    367     1
    363    371     1
    363    368     1
    362    367     1
    361    364     1
    361    365     1
    361    371     1
    359    375     1
    359    371     1
    359    363     1
    358    373     1
    358    363     1
    358    367     1
    356    361     1
    356    362     1
    356    371     1
    356    378     1
    355    378     1
    355    359     1
    355    372     1
    353    358     1
    350    356     1
    350    375     1
    350    378     1
    349    355     1
    349    373     1
    348    350     1
    347    350     1
    346    353     1
     27     28     1
     26     28     1
     24     26     1
     24     27     1
     24     29     1
     19     20     1
     18     20     1
     15     17     1
     15     20     1
     14     18     1
     14     19     1
     13     21     1
     13     15     1
     13     16     1
     11     26     1
     11     27     1
     11     15     1
     10     12     1
     10     21     1
     10     23     1
     10     26     1
     10     27     1
      9     13     1
      9     24     1
      8     24     1
      8     26     1
      8     27     1
      7      9     1
      7     24     1
      7     25     1
      7     28     1
      6     10     1
      6     26     1
      6     27     1
      5      7     1
      5      8     1
      5     23     1
      4      7     1
      4      8     1
      4     23     1
      3     24     1
      2      7     1
      1      4     1
      1      5     1
      1      6     1
     60     61     1
     59     61     1
     57     59     1
     57     60     1
     57     62     1
     53     54     1
     52     54     1
     49     51     1
     49     54     1
     48     52     1
     48     53     1
     47     49     1
     45     49     1
     43     55     1
     43     45     1
     41     59     1
     41     60     1
     40     42     1
     40     55     1
     40     56     1
     40     59     1
     40     60     1
     39     43     1
     39     57     1
     38     57     1
     38     59     1
     38     60     1
     37     39     1
     37     57     1
     37     58     1
     37     61     1
     36     40     1
     36     59     1
     36     60     1
     35     37     1
     35     38     1
     35     56     1
     34     37     1
     34     38     1
     34     56     1
     33     57     1
     32     37     1
     29     34     1
     29     35     1
     90     91     1
     89     91     1
     87     89     1
     87     90     1
     87     92     1
     82     83     1
     81     83     1
     78     80     1
     78     83     1
     77     81     1
     77     82     1
     76     84     1
     76     78     1
     76     79     1
     74     89     1
     74     90     1
     74     78     1
     73     75     1
     73     84     1
     73     86     1
     73     89     1
     73     90     1
     72     76     1
     72     87     1
     71     87     1
     71     89     1
     71     90     1
     70     72     1
     70     87     1
     70     88     1
     70     91     1
     69     73     1
     69     89     1
     69     90     1
     68     70     1
     68     71     1
     68     86     1
     67     70     1
     67     71     1
     67     86     1
     66     87     1
     65     70     1
     62     67     1
     62     68     1
    123    124     1
    122    124     1
    120    122     1
    120    123     1
    120    125     1
    116    117     1
    115    117     1
    112    114     1
    112    117     1
    111    115     1
    111    116     1
    110    112     1
    108    112     1
    106    118     1
    106    108     1
    104    122     1
    104    123     1
    103    105     1
    103    118     1
    103    119     1
    103    122     1
    103    123     1
    102    106     1
    102    120     1
    101    120     1
    101    122     1
    101    123     1
    100    102     1
    100    120     1
    100    121     1
    100    124     1
     99    103     1
     99    122     1
     99    123     1
     98    100     1
     98    101     1
     98    119     1
     97    100     1
     97    101     1
     97    119     1
     96    120     1
     95    100     1
     92     97     1
     92     98     1
    155    156     1
    154    156     1
    152    154     1
    152    155     1
    152    157     1
    148    150     1
    145    146     1
    144    146     1
    142    148     1
    141    144     1
    141    145     1
    139    150     1
    139    141     1
    137    154     1
    137    155     1
    136    138     1
    136    150     1
    136    151     1
    136    154     1
    136    155     1
    135    139     1
    135    152     1
    134    152     1
    134    154     1
    134    155     1
    133    135     1
    133    152     1
    133    153     1
    133    156     1
    132    136     1
    132    154     1
    132    155     1
    131    133     1
    131    134     1
    131    151     1
    130    133     1
    130    134     1
    130    151     1
    129    152     1
    128    133     1
    125    130     1
    125    131     1
    187    188     1
    186    188     1
    184    186     1
    184    187     1
    184    189     1
    180    182     1
    177    178     1
    176    178     1
    174    180     1
    173    176     1
    173    177     1
    171    182     1
    171    173     1
    169    186     1
    169    187     1
    168    170     1
    168    182     1
    168    183     1
    168    186     1
    168    187     1
    167    171     1
    167    184     1
    166    184     1
    166    186     1
    166    187     1
    165    167     1
    165    184     1
    165    185     1
    165    188     1
    164    168     1
    164    186     1
    164    187     1
    163    165     1
    163    166     1
    163    183     1
    162    165     1
    162    166     1
    162    183     1
    161    184     1
    160    165     1
    157    162     1
    157    163     1
    219    220     1
    218    220     1
    216    218     1
    216    219     1
    216    221     1
    212    214     1
    210    212     1
    208    209     1
    207    209     1
    206    209     1
    204    212     1
    203    213     1
    203    205     1
    203    209     1
    202    206     1
    202    207     1
    202    208     1
    201    218     1
    201    219     1
    201    212     1
    200    202     1
    200    213     1
    200    215     1
    200    218     1
    200    219     1
    199    203     1
    199    216     1
    198    216     1
    198    218     1
    198    219     1
    197    199     1
    197    216     1
    197    217     1
    197    220     1
    196    200     1
    196    218     1
    196    219     1
    195    197     1
    195    198     1
    195    215     1
    194    197     1
    194    198     1
    194    215     1
    193    216     1
    192    197     1
    189    194     1
    189    195     1
    251    252     1
    250    252     1
    248    250     1
    248    251     1
    248    253     1
    244    246     1
    242    244     1
    240    241     1
    239    241     1
    238    241     1
    236    244     1
    235    245     1
    235    237     1
    235    241     1
    234    238     1
    234    239     1
    234    240     1
    233    250     1
    233    251     1
    233    244     1
    232    234     1
    232    245     1
    232    247     1
    232    250     1
    232    251     1
    231    235     1
    231    248     1
    230    248     1
    230    250     1
    230    251     1
    229    231     1
    229    248     1
    229    249     1
    229    252     1
    228    232     1
    228    250     1
    228    251     1
    227    229     1
    227    230     1
    227    247     1
    226    229     1
    226    230     1
    226    247     1
    225    248     1
    224    229     1
    221    226     1
    221    227     1
    281    282     1
    280    282     1
    278    280     1
    278    281     1
    278    283     1
    273    274     1
    272    274     1
    269    271     1
    269    274     1
    268    272     1
    268    273     1
    267    275     1
    267    269     1
    267    270     1
    265    280     1
    265    281     1
    265    269     1
    264    266     1
    264    275     1
    264    277     1
    264    280     1
    264    281     1
    263    267     1
    263    278     1
    262    278     1
    262    280     1
    262    281     1
    261    263     1
    261    278     1
    261    279     1
    261    282     1
    260    264     1
    260    280     1
    260    281     1
    259    261     1
    259    262     1
    259    277     1
    258    261     1
    258    262     1
    258    277     1
    257    278     1
    256    261     1
    253    258     1
    253    259     1
    314    315     1
    313    315     1
    311    313     1
    311    314     1
    311    316     1
    307    308     1
    306    308     1
    303    305     1
    303    308     1
    302    306     1
    302    307     1
    301    303     1
    299    303     1
    297    309     1
    297    299     1
    295    313     1
    295    314     1
    294    296     1
    294    309     1
    294    310     1
    294    313     1
    294    314     1
    293    297     1
    293    311     1
    292    311     1
    292    313     1
    292    314     1
    291    293     1
    291    311     1
    291    312     1
    291    315     1
    290    294     1
    290    313     1
    290    314     1
    289    291     1
    289    292     1
    289    310     1
    288    291     1
    288    292     1
    288    310     1
    287    311     1
    286    291     1
    283    288     1
    283    289     1
    344    345     1
    343    345     1
    341    343     1
    341    344     1
    341    346     1
    336    337     1
    335    337     1
    332    334     1
    332    337     1
    331    335     1
    331    336     1
    330    338     1
    330    332     1
    330    333     1
    328    343     1
    328    344     1
    328    332     1
    327    329     1
    327    338     1
    327    340     1
    327    343     1
    327    344     1
    326    330     1
    326    341     1
    325    341     1
    325    343     1
    325    344     1
    324    326     1
    324    341     1
    324    342     1
    324    345     1
    323    327     1
    323    343     1
    323    344     1
    322    324     1
    322    325     1
    322    340     1
    321    324     1
    321    325     1
    321    340     1
    320    341     1
    319    324     1
    316    321     1
    316    322     1
    377    378     1
    376    378     1
    375    379     1
    374    376     1
    374    377     1
    374    379     1
    370    371     1
    369    371     1
    366    368     1
    366    371     1
    365    369     1
    365    370     1
    364    366     1
    362    366     1
    360    372     1
    360    362     1
    358    376     1
    358    377     1
    357    359     1
    357    372     1
    357    373     1
    357    376     1
    357    377     1
    356    360     1
    356    374     1
    355    374     1
    355    376     1
    355    377     1
    354    356     1
    354    374     1
    354    375     1
    354    378     1
    353    357     1
    353    376     1
    353    377     1
    353    379     1
    352    354     1
    352    355     1
    352    373     1
    351    354     1
    351    355     1
    351    373     1
    350    374     1
    349    354     1
    346    351     1
    346    352     1

[ angles ]
;    ai     aj     ak funct         c0         c1         c2         c3
     28     29     30     1   108.2300464 836.800000
     28     29     31     1   108.2300464 836.800000
     28     29     32     1   102.6000440 376.560000
     25     23     28     1   109.5000469 418.400000
     23     28     29     1   120.5000516 836.800000
     20     21     22     1   122.5000525 669.440000
     17     16     20     1   119.3000511 585.760000
     16     20     21     1   120.5000516 585.760000
     14     16     17     1   120.1000515 585.760000
     14     16     20     1   121.5000521 585.760000
     12     11     21     1   121.6000521 585.760000
     12     14     16     1   117.0000501 527.184000
     11      9     25     1   109.5000469 418.400000
     11     12     14     1   121.2000519 585.760000
     11     21     20     1   118.6000508 585.760000
     11     21     22     1   120.9000518 669.440000
      9     11     12     1   121.2000519 585.760000
      9     11     21     1   117.6000504 585.760000
      9     25     23     1   109.5000469 334.720000
      8      6     23     1   109.5000469 418.400000
      8      9     11     1   109.5000469 418.400000
      8      9     25     1   109.5000469 418.400000
      6      8      9     1   109.5000469 502.080000
      6     23     25     1   109.5000469 334.720000
      6     23     28     1   109.5000469 418.400000
      3      6      8     1   109.5000469 418.400000
      3      6     23     1   109.5000469 334.720000
      2      3      6     1   109.5000469 418.400000
     61     62     63     1   108.2300464 836.800000
     61     62     64     1   108.2300464 836.800000
     61     62     65     1   102.6000440 376.560000
     58     56     61     1   109.5000469 418.400000
     56     61     62     1   120.5000516 836.800000
     51     50     54     1   119.3000511 585.760000
     50     54     55     1   112.2000481 585.760000
     48     50     51     1   116.0000497 585.760000
     48     50     54     1   123.3000528 585.760000
     47     46     48     1   120.6000517 669.440000
     46     45     55     1   119.2000511 527.184000
     46     48     50     1   125.2000537 585.760000
     45     46     47     1   128.8000552 669.440000
     45     46     48     1   111.3000477 585.760000
     45     55     54     1   127.7000547 585.760000
     44     45     46     1   130.0000557 585.760000
     44     45     55     1   110.4000473 585.760000
     42     41     55     1   105.4000452 585.760000
     42     44     45     1   103.8000445 585.760000
     41     39     58     1   109.5000469 418.400000
     41     42     44     1   113.9000488 585.760000
     41     55     45     1   106.2000455 585.760000
     41     55     54     1   126.2000541 585.760000
     39     41     42     1   128.8000552 585.760000
     39     41     55     1   125.8000539 585.760000
     39     58     56     1   109.5000469 334.720000
     38     36     56     1   109.5000469 418.400000
     38     39     41     1   109.5000469 418.400000
     38     39     58     1   109.5000469 418.400000
     36     38     39     1   109.5000469 502.080000
     36     56     58     1   109.5000469 334.720000
     36     56     61     1   109.5000469 418.400000
     33     36     38     1   109.5000469 418.400000
     33     36     56     1   109.5000469 334.720000
     32     33     36     1   109.5000469 418.400000
     31     29     32     1   108.2300464 836.800000
     30     29     31     1   119.9000514 1171.520000
     30     29     32     1   108.2300464 836.800000
     29     32     33     1   120.5000516 836.800000
     91     92     93     1   108.2300464 836.800000
     91     92     94     1   108.2300464 836.800000
     91     92     95     1   102.6000440 376.560000
     88     86     91     1   109.5000469 418.400000
     86     91     92     1   120.5000516 836.800000
     83     84     85     1   122.5000525 669.440000
     80     79     83     1   119.3000511 585.760000
     79     83     84     1   120.5000516 585.760000
     77     79     80     1   120.1000515 585.760000
     77     79     83     1   121.5000521 585.760000
     75     74     84     1   121.6000521 585.760000
     75     77     79     1   117.0000501 527.184000
     74     72     88     1   109.5000469 418.400000
     74     75     77     1   121.2000519 585.760000
     74     84     83     1   118.6000508 585.760000
     74     84     85     1   120.9000518 669.440000
     72     74     75     1   121.2000519 585.760000
     72     74     84     1   117.6000504 585.760000
     72     88     86     1   109.5000469 334.720000
     71     69     86     1   109.5000469 418.400000
     71     72     74     1   109.5000469 418.400000
     71     72     88     1   109.5000469 418.400000
     69     71     72     1   109.5000469 502.080000
     69     86     88     1   109.5000469 334.720000
     69     86     91     1   109.5000469 418.400000
     66     69     71     1   109.5000469 418.400000
     66     69     86     1   109.5000469 334.720000
     65     66     69     1   109.5000469 418.400000
     64     62     65     1   108.2300464 836.800000
     63     62     64     1   119.9000514 1171.520000
     63     62     65     1   108.2300464 836.800000
     62     65     66     1   120.5000516 836.800000
    124    125    126     1   108.2300464 836.800000
    124    125    127     1   108.2300464 836.800000
    124    125    128     1   102.6000440 376.560000
    121    119    124     1   109.5000469 418.400000
    119    124    125     1   120.5000516 836.800000
    114    113    117     1   119.3000511 585.760000
    113    117    118     1   112.2000481 585.760000
    111    113    114     1   116.0000497 585.760000
    111    113    117     1   123.3000528 585.760000
    110    109    111     1   120.6000517 669.440000
    109    108    118     1   119.2000511 527.184000
    109    111    113     1   125.2000537 585.760000
    108    109    110     1   128.8000552 669.440000
    108    109    111     1   111.3000477 585.760000
    108    118    117     1   127.7000547 585.760000
    107    108    109     1   130.0000557 585.760000
    107    108    118     1   110.4000473 585.760000
    105    104    118     1   105.4000452 585.760000
    105    107    108     1   103.8000445 585.760000
    104    102    121     1   109.5000469 418.400000
    104    105    107     1   113.9000488 585.760000
    104    118    108     1   106.2000455 585.760000
    104    118    117     1   126.2000541 585.760000
    102    104    105     1   128.8000552 585.760000
    102    104    118     1   125.8000539 585.760000
    102    121    119     1   109.5000469 334.720000
    101     99    119     1   109.5000469 418.400000
    101    102    104     1   109.5000469 418.400000
    101    102    121     1   109.5000469 418.400000
     99    101    102     1   109.5000469 502.080000
     99    119    121     1   109.5000469 334.720000
     99    119    124     1   109.5000469 418.400000
     96     99    101     1   109.5000469 418.400000
     96     99    119     1   109.5000469 334.720000
     95     96     99     1   109.5000469 418.400000
     94     92     95     1   108.2300464 836.800000
     93     92     94     1   119.9000514 1171.520000
     93     92     95     1   108.2300464 836.800000
     92     95     96     1   120.5000516 836.800000
    156    157    158     1   108.2300464 836.800000
    156    157    159     1   108.2300464 836.800000
    156    157    160     1   102.6000440 376.560000
    153    151    156     1   109.5000469 418.400000
    151    156    157     1   120.5000516 836.800000
    147    149    150     1   111.0000476 585.760000
    146    147    149     1   129.1000553 585.760000
    143    142    146     1   119.3000511 585.760000
    142    141    150     1   117.3000503 527.184000
    142    146    147     1   118.6000508 585.760000
    141    142    143     1   123.5000529 585.760000
    141    142    146     1   117.3000503 585.760000
    141    150    149     1   127.7000547 585.760000
    140    141    142     1   132.4000567 585.760000
    140    141    150     1   110.4000473 585.760000
    138    137    150     1   105.4000452 585.760000
    138    140    141     1   103.8000445 585.760000
    137    135    153     1   109.5000469 418.400000
    137    138    140     1   113.9000488 585.760000
    137    150    141     1   106.2000455 585.760000
    137    150    149     1   126.2000541 585.760000
    135    137    138     1   128.8000552 585.760000
    135    137    150     1   125.8000539 585.760000
    135    153    151     1   109.5000469 334.720000
    134    132    151     1   109.5000469 418.400000
    134    135    137     1   109.5000469 418.400000
    134    135    153     1   109.5000469 418.400000
    132    134    135     1   109.5000469 502.080000
    132    151    153     1   109.5000469 334.720000
    132    151    156     1   109.5000469 418.400000
    129    132    134     1   109.5000469 418.400000
    129    132    151     1   109.5000469 334.720000
    128    129    132     1   109.5000469 418.400000
    127    125    128     1   108.2300464 836.800000
    126    125    127     1   119.9000514 1171.520000
    126    125    128     1   108.2300464 836.800000
    125    128    129     1   120.5000516 836.800000
    188    189    190     1   108.2300464 836.800000
    188    189    191     1   108.2300464 836.800000
    188    189    192     1   102.6000440 376.560000
    185    183    188     1   109.5000469 418.400000
    183    188    189     1   120.5000516 836.800000
    179    181    182     1   111.0000476 585.760000
    178    179    181     1   129.1000553 585.760000
    175    174    178     1   119.3000511 585.760000
    174    173    182     1   117.3000503 527.184000
    174    178    179     1   118.6000508 585.760000
    173    174    175     1   123.5000529 585.760000
    173    174    178     1   117.3000503 585.760000
    173    182    181     1   127.7000547 585.760000
    172    173    174     1   132.4000567 585.760000
    172    173    182     1   110.4000473 585.760000
    170    169    182     1   105.4000452 585.760000
    170    172    173     1   103.8000445 585.760000
    169    167    185     1   109.5000469 418.400000
    169    170    172     1   113.9000488 585.760000
    169    182    173     1   106.2000455 585.760000
    169    182    181     1   126.2000541 585.760000
    167    169    170     1   128.8000552 585.760000
    167    169    182     1   125.8000539 585.760000
    167    185    183     1   109.5000469 334.720000
    166    164    183     1   109.5000469 418.400000
    166    167    169     1   109.5000469 418.400000
    166    167    185     1   109.5000469 418.400000
    164    166    167     1   109.5000469 502.080000
    164    183    185     1   109.5000469 334.720000
    164    183    188     1   109.5000469 418.400000
    161    164    166     1   109.5000469 418.400000
    161    164    183     1   109.5000469 334.720000
    160    161    164     1   109.5000469 418.400000
    159    157    160     1   108.2300464 836.800000
    158    157    159     1   119.9000514 1171.520000
    158    157    160     1   108.2300464 836.800000
    157    160    161     1   120.5000516 836.800000
    220    221    222     1   108.2300464 836.800000
    220    221    223     1   108.2300464 836.800000
    220    221    224     1   102.6000440 376.560000
    217    215    220     1   109.5000469 418.400000
    215    220    221     1   120.5000516 836.800000
    211    213    214     1   120.6000517 669.440000
    210    209    211     1   120.6000517 669.440000
    209    211    213     1   126.4000542 585.760000
    205    204    209     1   119.7000513 585.760000
    204    209    210     1   125.3000537 669.440000
    204    209    211     1   114.1000489 585.760000
    202    201    213     1   121.6000521 585.760000
    202    204    205     1   119.7000513 585.760000
    202    204    209     1   120.7000517 527.184000
    201    199    217     1   109.5000469 418.400000
    201    202    204     1   121.2000519 585.760000
    201    213    211     1   115.4000495 585.760000
    201    213    214     1   120.9000518 669.440000
    199    201    202     1   121.2000519 585.760000
    199    201    213     1   117.6000504 585.760000
    199    217    215     1   109.5000469 334.720000
    198    196    215     1   109.5000469 418.400000
    198    199    201     1   109.5000469 418.400000
    198    199    217     1   109.5000469 418.400000
    196    198    199     1   109.5000469 502.080000
    196    215    217     1   109.5000469 334.720000
    196    215    220     1   109.5000469 418.400000
    193    196    198     1   109.5000469 418.400000
    193    196    215     1   109.5000469 334.720000
    192    193    196     1   109.5000469 418.400000
    191    189    192     1   108.2300464 836.800000
    190    189    191     1   119.9000514 1171.520000
    190    189    192     1   108.2300464 836.800000
    189    192    193     1   120.5000516 836.800000
    252    253    254     1   108.2300464 836.800000
    252    253    255     1   108.2300464 836.800000
    252    253    256     1   102.6000440 376.560000
    249    247    252     1   109.5000469 418.400000
    247    252    253     1   120.5000516 836.800000
    243    245    246     1   120.6000517 669.440000
    242    241    243     1   120.6000517 669.440000
    241    243    245     1   126.4000542 585.760000
    237    236    241     1   119.7000513 585.760000
    236    241    242     1   125.3000537 669.440000
    236    241    243     1   114.1000489 585.760000
    234    233    245     1   121.6000521 585.760000
    234    236    237     1   119.7000513 585.760000
    234    236    241     1   120.7000517 527.184000
    233    231    249     1   109.5000469 418.400000
    233    234    236     1   121.2000519 585.760000
    233    245    243     1   115.4000495 585.760000
    233    245    246     1   120.9000518 669.440000
    231    233    234     1   121.2000519 585.760000
    231    233    245     1   117.6000504 585.760000
    231    249    247     1   109.5000469 334.720000
    230    228    247     1   109.5000469 418.400000
    230    231    233     1   109.5000469 418.400000
    230    231    249     1   109.5000469 418.400000
    228    230    231     1   109.5000469 502.080000
    228    247    249     1   109.5000469 334.720000
    228    247    252     1   109.5000469 418.400000
    225    228    230     1   109.5000469 418.400000
    225    228    247     1   109.5000469 334.720000
    224    225    228     1   109.5000469 418.400000
    223    221    224     1   108.2300464 836.800000
    222    221    223     1   119.9000514 1171.520000
    222    221    224     1   108.2300464 836.800000
    221    224    225     1   120.5000516 836.800000
    282    283    284     1   108.2300464 836.800000
    282    283    285     1   108.2300464 836.800000
    282    283    286     1   102.6000440 376.560000
    279    277    282     1   109.5000469 418.400000
    277    282    283     1   120.5000516 836.800000
    274    275    276     1   122.5000525 669.440000
    271    270    274     1   119.3000511 585.760000
    270    274    275     1   120.5000516 585.760000
    268    270    271     1   120.1000515 585.760000
    268    270    274     1   121.5000521 585.760000
    266    265    275     1   121.6000521 585.760000
    266    268    270     1   117.0000501 527.184000
    265    263    279     1   109.5000469 418.400000
    265    266    268     1   121.2000519 585.760000
    265    275    274     1   118.6000508 585.760000
    265    275    276     1   120.9000518 669.440000
    263    265    266     1   121.2000519 585.760000
    263    265    275     1   117.6000504 585.760000
    263    279    277     1   109.5000469 334.720000
    262    260    277     1   109.5000469 418.400000
    262    263    265     1   109.5000469 418.400000
    262    263    279     1   109.5000469 418.400000
    260    262    263     1   109.5000469 502.080000
    260    277    279     1   109.5000469 334.720000
    260    277    282     1   109.5000469 418.400000
    257    260    262     1   109.5000469 418.400000
    257    260    277     1   109.5000469 334.720000
    256    257    260     1   109.5000469 418.400000
    255    253    256     1   108.2300464 836.800000
    254    253    255     1   119.9000514 1171.520000
    254    253    256     1   108.2300464 836.800000
    253    256    257     1   120.5000516 836.800000
    315    316    317     1   108.2300464 836.800000
    315    316    318     1   108.2300464 836.800000
    315    316    319     1   102.6000440 376.560000
    312    310    315     1   109.5000469 418.400000
    310    315    316     1   120.5000516 836.800000
    305    304    308     1   119.3000511 585.760000
    304    308    309     1   112.2000481 585.760000
    302    304    305     1   116.0000497 585.760000
    302    304    308     1   123.3000528 585.760000
    301    300    302     1   120.6000517 669.440000
    300    299    309     1   119.2000511 527.184000
    300    302    304     1   125.2000537 585.760000
    299    300    301     1   128.8000552 669.440000
    299    300    302     1   111.3000477 585.760000
    299    309    308     1   127.7000547 585.760000
    298    299    300     1   130.0000557 585.760000
    298    299    309     1   110.4000473 585.760000
    296    295    309     1   105.4000452 585.760000
    296    298    299     1   103.8000445 585.760000
    295    293    312     1   109.5000469 418.400000
    295    296    298     1   113.9000488 585.760000
    295    309    299     1   106.2000455 585.760000
    295    309    308     1   126.2000541 585.760000
    293    295    296     1   128.8000552 585.760000
    293    295    309     1   125.8000539 585.760000
    293    312    310     1   109.5000469 334.720000
    292    290    310     1   109.5000469 418.400000
    292    293    295     1   109.5000469 418.400000
    292    293    312     1   109.5000469 418.400000
    290    292    293     1   109.5000469 502.080000
    290    310    312     1   109.5000469 334.720000
    290    310    315     1   109.5000469 418.400000
    287    290    292     1   109.5000469 418.400000
    287    290    310     1   109.5000469 334.720000
    286    287    290     1   109.5000469 418.400000
    285    283    286     1   108.2300464 836.800000
    284    283    285     1   119.9000514 1171.520000
    284    283    286     1   108.2300464 836.800000
    283    286    287     1   120.5000516 836.800000
    345    346    347     1   108.2300464 836.800000
    345    346    348     1   108.2300464 836.800000
    345    346    349     1   102.6000440 376.560000
    342    340    345     1   109.5000469 418.400000
    340    345    346     1   120.5000516 836.800000
    337    338    339     1   122.5000525 669.440000
    334    333    337     1   119.3000511 585.760000
    333    337    338     1   120.5000516 585.760000
    331    333    334     1   120.1000515 585.760000
    331    333    337     1   121.5000521 585.760000
    329    328    338     1   121.6000521 585.760000
    329    331    333     1   117.0000501 527.184000
    328    326    342     1   109.5000469 418.400000
    328    329    331     1   121.2000519 585.760000
    328    338    337     1   118.6000508 585.760000
    328    338    339     1   120.9000518 669.440000
    326    328    329     1   121.2000519 585.760000
    326    328    338     1   117.6000504 585.760000
    326    342    340     1   109.5000469 334.720000
    325    323    340     1   109.5000469 418.400000
    325    326    328     1   109.5000469 418.400000
    325    326    342     1   109.5000469 418.400000
    323    325    326     1   109.5000469 502.080000
    323    340    342     1   109.5000469 334.720000
    323    340    345     1   109.5000469 418.400000
    320    323    325     1   109.5000469 418.400000
    320    323    340     1   109.5000469 334.720000
    319    320    323     1   109.5000469 418.400000
    318    316    319     1   108.2300464 836.800000
    317    316    318     1   119.9000514 1171.520000
    317    316    319     1   108.2300464 836.800000
    316    319    320     1   120.5000516 836.800000
    375    373    378     1   109.5000469 418.400000
    368    367    371     1   119.3000511 585.760000
    367    371    372     1   112.2000481 585.760000
    365    367    368     1   116.0000497 585.760000
    365    367    371     1   123.3000528 585.760000
    364    363    365     1   120.6000517 669.440000
    363    362    372     1   119.2000511 527.184000
    363    365    367     1   125.2000537 585.760000
    362    363    364     1   128.8000552 669.440000
    362    363    365     1   111.3000477 585.760000
    362    372    371     1   127.7000547 585.760000
    361    362    363     1   130.0000557 585.760000
    361    362    372     1   110.4000473 585.760000
    359    358    372     1   105.4000452 585.760000
    359    361    362     1   103.8000445 585.760000
    358    356    375     1   109.5000469 418.400000
    358    359    361     1   113.9000488 585.760000
    358    372    362     1   106.2000455 585.760000
    358    372    371     1   126.2000541 585.760000
    356    358    359     1   128.8000552 585.760000
    356    358    372     1   125.8000539 585.760000
    356    375    373     1   109.5000469 334.720000
    355    353    373     1   109.5000469 418.400000
    355    356    358     1   109.5000469 418.400000
    355    356    375     1   109.5000469 418.400000
    353    355    356     1   109.5000469 502.080000
    353    373    375     1   109.5000469 334.720000
    353    373    378     1   109.5000469 418.400000
    350    353    355     1   109.5000469 418.400000
    350    353    373     1   109.5000469 334.720000
    349    350    353     1   109.5000469 418.400000
    348    346    349     1   108.2300464 836.800000
    347    346    348     1   119.9000514 1171.520000
    347    346    349     1   108.2300464 836.800000
    346    349    350     1   120.5000516 836.800000
     26     25     27     1   109.5000469 292.880000
     24     23     25     1   109.5000469 418.400000
     24     23     28     1   109.5000469 418.400000
     23     25     26     1   109.5000469 418.400000
     23     25     27     1   109.5000469 418.400000
     18     17     19     1   120.0000514 292.880000
     16     17     18     1   120.0000514 418.400000
     16     17     19     1   120.0000514 418.400000
     15     14     16     1   123.3000528 418.400000
     13     12     14     1   119.7000513 418.400000
     12     14     15     1   119.7000513 418.400000
     11     12     13     1   119.1000510 418.400000
     10      9     11     1   109.5000469 418.400000
     10      9     25     1   109.5000469 418.400000
      9     25     26     1   109.5000469 418.400000
      9     25     27     1   109.5000469 418.400000
      8      9     10     1   109.5000469 418.400000
      7      6      8     1   109.5000469 418.400000
      7      6     23     1   109.5000469 418.400000
      6     23     24     1   109.5000469 418.400000
      5      3      6     1   109.5000469 418.400000
      4      3      5     1   109.5000469 292.880000
      4      3      6     1   109.5000469 418.400000
      3      6      7     1   109.5000469 418.400000
      2      3      4     1   109.5000469 418.400000
      2      3      5     1   109.5000469 418.400000
      1      2      3     1   108.5000465 460.240000
     59     58     60     1   109.5000469 292.880000
     57     56     58     1   109.5000469 418.400000
     57     56     61     1   109.5000469 418.400000
     56     58     59     1   109.5000469 418.400000
     56     58     60     1   109.5000469 418.400000
     52     51     53     1   120.0000514 292.880000
     50     51     52     1   120.0000514 418.400000
     50     51     53     1   120.0000514 418.400000
     49     48     50     1   118.0000506 418.400000
     46     48     49     1   116.8000501 418.400000
     43     42     44     1   123.0500530 418.400000
     41     42     43     1   123.0500530 418.400000
     40     39     41     1   109.5000469 418.400000
     40     39     58     1   109.5000469 418.400000
     39     58     59     1   109.5000469 418.400000
     39     58     60     1   109.5000469 418.400000
     38     39     40     1   109.5000469 418.400000
     37     36     38     1   109.5000469 418.400000
     37     36     56     1   109.5000469 418.400000
     36     56     57     1   109.5000469 418.400000
     35     33     36     1   109.5000469 418.400000
     34     33     35     1   109.5000469 292.880000
     34     33     36     1   109.5000469 418.400000
     33     36     37     1   109.5000469 418.400000
     32     33     34     1   109.5000469 418.400000
     32     33     35     1   109.5000469 418.400000
     89     88     90     1   109.5000469 292.880000
     87     86     88     1   109.5000469 418.400000
     87     86     91     1   109.5000469 418.400000
     86     88     89     1   109.5000469 418.400000
     86     88     90     1   109.5000469 418.400000
     81     80     82     1   120.0000514 292.880000
     79     80     81     1   120.0000514 418.400000
     79     80     82     1   120.0000514 418.400000
     78     77     79     1   123.3000528 418.400000
     76     75     77     1   119.7000513 418.400000
     75     77     78     1   119.7000513 418.400000
     74     75     76     1   119.1000510 418.400000
     73     72     74     1   109.5000469 418.400000
     73     72     88     1   109.5000469 418.400000
     72     88     89     1   109.5000469 418.400000
     72     88     90     1   109.5000469 418.400000
     71     72     73     1   109.5000469 418.400000
     70     69     71     1   109.5000469 418.400000
     70     69     86     1   109.5000469 418.400000
     69     86     87     1   109.5000469 418.400000
     68     66     69     1   109.5000469 418.400000
     67     66     68     1   109.5000469 292.880000
     67     66     69     1   109.5000469 418.400000
     66     69     70     1   109.5000469 418.400000
     65     66     67     1   109.5000469 418.400000
     65     66     68     1   109.5000469 418.400000
    122    121    123     1   109.5000469 292.880000
    120    119    121     1   109.5000469 418.400000
    120    119    124     1   109.5000469 418.400000
    119    121    122     1   109.5000469 418.400000
    119    121    123     1   109.5000469 418.400000
    115    114    116     1   120.0000514 292.880000
    113    114    115     1   120.0000514 418.400000
    113    114    116     1   120.0000514 418.400000
    112    111    113     1   118.0000506 418.400000
    109    111    112     1   116.8000501 418.400000
    106    105    107     1   123.0500530 418.400000
    104    105    106     1   123.0500530 418.400000
    103    102    104     1   109.5000469 418.400000
    103    102    121     1   109.5000469 418.400000
    102    121    122     1   109.5000469 418.400000
    102    121    123     1   109.5000469 418.400000
    101    102    103     1   109.5000469 418.400000
    100     99    101     1   109.5000469 418.400000
    100     99    119     1   109.5000469 418.400000
     99    119    120     1   109.5000469 418.400000
     98     96     99     1   109.5000469 418.400000
     97     96     98     1   109.5000469 292.880000
     97     96     99     1   109.5000469 418.400000
     96     99    100     1   109.5000469 418.400000
     95     96     97     1   109.5000469 418.400000
     95     96     98     1   109.5000469 418.400000
    154    153    155     1   109.5000469 292.880000
    152    151    153     1   109.5000469 418.400000
    152    151    156     1   109.5000469 418.400000
    151    153    154     1   109.5000469 418.400000
    151    153    155     1   109.5000469 418.400000
    148    147    149     1   115.4500498 418.400000
    146    147    148     1   115.4500498 418.400000
    144    143    145     1   120.0000514 292.880000
    142    143    144     1   120.0000514 418.400000
    142    143    145     1   120.0000514 418.400000
    139    138    140     1   123.0500530 418.400000
    137    138    139     1   123.0500530 418.400000
    136    135    137     1   109.5000469 418.400000
    136    135    153     1   109.5000469 418.400000
    135    153    154     1   109.5000469 418.400000
    135    153    155     1   109.5000469 418.400000
    134    135    136     1   109.5000469 418.400000
    133    132    134     1   109.5000469 418.400000
    133    132    151     1   109.5000469 418.400000
    132    151    152     1   109.5000469 418.400000
    131    129    132     1   109.5000469 418.400000
    130    129    131     1   109.5000469 292.880000
    130    129    132     1   109.5000469 418.400000
    129    132    133     1   109.5000469 418.400000
    128    129    130     1   109.5000469 418.400000
    128    129    131     1   109.5000469 418.400000
    186    185    187     1   109.5000469 292.880000
    184    183    185     1   109.5000469 418.400000
    184    183    188     1   109.5000469 418.400000
    183    185    186     1   109.5000469 418.400000
    183    185    187     1   109.5000469 418.400000
    180    179    181     1   115.4500498 418.400000
    178    179    180     1   115.4500498 418.400000
    176    175    177     1   120.0000514 292.880000
    174    175    176     1   120.0000514 418.400000
    174    175    177     1   120.0000514 418.400000
    171    170    172     1   123.0500530 418.400000
    169    170    171     1   123.0500530 418.400000
    168    167    169     1   109.5000469 418.400000
    168    167    185     1   109.5000469 418.400000
    167    185    186     1   109.5000469 418.400000
    167    185    187     1   109.5000469 418.400000
    166    167    168     1   109.5000469 418.400000
    165    164    166     1   109.5000469 418.400000
    165    164    183     1   109.5000469 418.400000
    164    183    184     1   109.5000469 418.400000
    163    161    164     1   109.5000469 418.400000
    162    161    163     1   109.5000469 292.880000
    162    161    164     1   109.5000469 418.400000
    161    164    165     1   109.5000469 418.400000
    160    161    162     1   109.5000469 418.400000
    160    161    163     1   109.5000469 418.400000
    218    217    219     1   109.5000469 292.880000
    216    215    217     1   109.5000469 418.400000
    216    215    220     1   109.5000469 418.400000
    215    217    218     1   109.5000469 418.400000
    215    217    219     1   109.5000469 418.400000
    212    211    213     1   116.8000501 418.400000
    209    211    212     1   116.8000501 418.400000
    207    205    208     1   109.5000469 292.880000
    206    205    207     1   109.5000469 292.880000
    206    205    208     1   109.5000469 292.880000
    204    205    206     1   109.5000469 418.400000
    204    205    207     1   109.5000469 418.400000
    204    205    208     1   109.5000469 418.400000
    203    202    204     1   119.7000513 418.400000
    201    202    203     1   119.1000510 418.400000
    200    199    201     1   109.5000469 418.400000
    200    199    217     1   109.5000469 418.400000
    199    217    218     1   109.5000469 418.400000
    199    217    219     1   109.5000469 418.400000
    198    199    200     1   109.5000469 418.400000
    197    196    198     1   109.5000469 418.400000
    197    196    215     1   109.5000469 418.400000
    196    215    216     1   109.5000469 418.400000
    195    193    196     1   109.5000469 418.400000
    194    193    195     1   109.5000469 292.880000
    194    193    196     1   109.5000469 418.400000
    193    196    197     1   109.5000469 418.400000
    192    193    194     1   109.5000469 418.400000
    192    193    195     1   109.5000469 418.400000
    250    249    251     1   109.5000469 292.880000
    248    247    249     1   109.5000469 418.400000
    248    247    252     1   109.5000469 418.400000
    247    249    250     1   109.5000469 418.400000
    247    249    251     1   109.5000469 418.400000
    244    243    245     1   116.8000501 418.400000
    241    243    244     1   116.8000501 418.400000
    239    237    240     1   109.5000469 292.880000
    238    237    239     1   109.5000469 292.880000
    238    237    240     1   109.5000469 292.880000
    236    237    238     1   109.5000469 418.400000
    236    237    239     1   109.5000469 418.400000
    236    237    240     1   109.5000469 418.400000
    235    234    236     1   119.7000513 418.400000
    233    234    235     1   119.1000510 418.400000
    232    231    233     1   109.5000469 418.400000
    232    231    249     1   109.5000469 418.400000
    231    249    250     1   109.5000469 418.400000
    231    249    251     1   109.5000469 418.400000
    230    231    232     1   109.5000469 418.400000
    229    228    230     1   109.5000469 418.400000
    229    228    247     1   109.5000469 418.400000
    228    247    248     1   109.5000469 418.400000
    227    225    228     1   109.5000469 418.400000
    226    225    227     1   109.5000469 292.880000
    226    225    228     1   109.5000469 418.400000
    225    228    229     1   109.5000469 418.400000
    224    225    226     1   109.5000469 418.400000
    224    225    227     1   109.5000469 418.400000
    280    279    281     1   109.5000469 292.880000
    278    277    279     1   109.5000469 418.400000
    278    277    282     1   109.5000469 418.400000
    277    279    280     1   109.5000469 418.400000
    277    279    281     1   109.5000469 418.400000
    272    271    273     1   120.0000514 292.880000
    270    271    272     1   120.0000514 418.400000
    270    271    273     1   120.0000514 418.400000
    269    268    270     1   123.3000528 418.400000
    267    266    268     1   119.7000513 418.400000
    266    268    269     1   119.7000513 418.400000
    265    266    267     1   119.1000510 418.400000
    264    263    265     1   109.5000469 418.400000
    264    263    279     1   109.5000469 418.400000
    263    279    280     1   109.5000469 418.400000
    263    279    281     1   109.5000469 418.400000
    262    263    264     1   109.5000469 418.400000
    261    260    262     1   109.5000469 418.400000
    261    260    277     1   109.5000469 418.400000
    260    277    278     1   109.5000469 418.400000
    259    257    260     1   109.5000469 418.400000
    258    257    259     1   109.5000469 292.880000
    258    257    260     1   109.5000469 418.400000
    257    260    261     1   109.5000469 418.400000
    256    257    258     1   109.5000469 418.400000
    256    257    259     1   109.5000469 418.400000
    313    312    314     1   109.5000469 292.880000
    311    310    312     1   109.5000469 418.400000
    311    310    315     1   109.5000469 418.400000
    310    312    313     1   109.5000469 418.400000
    310    312    314     1   109.5000469 418.400000
    306    305    307     1   120.0000514 292.880000
    304    305    306     1   120.0000514 418.400000
    304    305    307     1   120.0000514 418.400000
    303    302    304     1   118.0000506 418.400000
    300    302    303     1   116.8000501 418.400000
    297    296    298     1   123.0500530 418.400000
    295    296    297     1   123.0500530 418.400000
    294    293    295     1   109.5000469 418.400000
    294    293    312     1   109.5000469 418.400000
    293    312    313     1   109.5000469 418.400000
    293    312    314     1   109.5000469 418.400000
    292    293    294     1   109.5000469 418.400000
    291    290    292     1   109.5000469 418.400000
    291    290    310     1   109.5000469 418.400000
    290    310    311     1   109.5000469 418.400000
    289    287    290     1   109.5000469 418.400000
    288    287    289     1   109.5000469 292.880000
    288    287    290     1   109.5000469 418.400000
    287    290    291     1   109.5000469 418.400000
    286    287    288     1   109.5000469 418.400000
    286    287    289     1   109.5000469 418.400000
    343    342    344     1   109.5000469 292.880000
    341    340    342     1   109.5000469 418.400000
    341    340    345     1   109.5000469 418.400000
    340    342    343     1   109.5000469 418.400000
    340    342    344     1   109.5000469 418.400000
    335    334    336     1   120.0000514 292.880000
    333    334    335     1   120.0000514 418.400000
    333    334    336     1   120.0000514 418.400000
    332    331    333     1   123.3000528 418.400000
    330    329    331     1   119.7000513 418.400000
    329    331    332     1   119.7000513 418.400000
    328    329    330     1   119.1000510 418.400000
    327    326    328     1   109.5000469 418.400000
    327    326    342     1   109.5000469 418.400000
    326    342    343     1   109.5000469 418.400000
    326    342    344     1   109.5000469 418.400000
    325    326    327     1   109.5000469 418.400000
    324    323    325     1   109.5000469 418.400000
    324    323    340     1   109.5000469 418.400000
    323    340    341     1   109.5000469 418.400000
    322    320    323     1   109.5000469 418.400000
    321    320    322     1   109.5000469 292.880000
    321    320    323     1   109.5000469 418.400000
    320    323    324     1   109.5000469 418.400000
    319    320    321     1   109.5000469 418.400000
    319    320    322     1   109.5000469 418.400000
    376    375    377     1   109.5000469 292.880000
    374    373    375     1   109.5000469 418.400000
    374    373    378     1   109.5000469 418.400000
    373    375    376     1   109.5000469 418.400000
    373    375    377     1   109.5000469 418.400000
    373    378    379     1   108.5000465 460.240000
    369    368    370     1   120.0000514 292.880000
    367    368    369     1   120.0000514 418.400000
    367    368    370     1   120.0000514 418.400000
    366    365    367     1   118.0000506 418.400000
    363    365    366     1   116.8000501 418.400000
    360    359    361     1   123.0500530 418.400000
    358    359    360     1   123.0500530 418.400000
    357    356    358     1   109.5000469 418.400000
    357    356    375     1   109.5000469 418.400000
    356    375    376     1   109.5000469 418.400000
    356    375    377     1   109.5000469 418.400000
    355    356    357     1   109.5000469 418.400000
    354    353    355     1   109.5000469 418.400000
    354    353    373     1   109.5000469 418.400000
    353    373    374     1   109.5000469 418.400000
    352    350    353     1   109.5000469 418.400000
    351    350    352     1   109.5000469 292.880000
    351    350    353     1   109.5000469 418.400000
    350    353    354     1   109.5000469 418.400000
    349    350    351     1   109.5000469 418.400000
    349    350    352     1   109.5000469 418.400000

[ dihedrals ]
;    ai     aj     ak     al funct         c0         c1         c2         c3         c4         c5
     28     29     32     33     1  102.0640437  1.3238929  1
     28     29     32     33     1  359.6931543  2.6363217  2
     28     29     32     33     1  299.8701285  1.0089716  3
     28     29     32     33     1  32.0810137  0.6802807  4
     28     29     32     33     1  303.5561298  0.4080237  5
     28     29     32     33     1  19.4940083  0.1809664  6
     25     23     28     29     1  205.9192881  7.4260979  1
     25     23     28     29     1  139.8342598  2.7062530  2
     25     23     28     29     1  162.4967694  0.6384366  3
     23     28     29     30     1  358.2841537  1.2303889  3
     23     28     29     31     1  358.2841537  1.2303889  3
     23     28     29     32     1  1.7533008  3.8863921  1
     23     28     29     32     1  350.8821503  4.0762620  2
     23     28     29     32     1  358.2841537  1.2303889  3
     21     11      9     25     1  0.0000000  0.0000000  2
     17     16     20     21     1  180.0000771  20.0832000  2
     16     20     21     22     1  180.0000771  16.7360000  2
     14     12     11     21     1  180.0000771  7.7404000  2
     14     16     20     21     1  180.0000771  20.0832000  2
     12     11      9     25     1  0.0000000  0.0000000  2
     12     11     21     20     1  180.0000771  6.0668000  2
     12     11     21     22     1  180.0000771  6.0668000  2
     12     14     16     17     1  180.0000771  10.6692000  2
     12     14     16     20     1  180.0000771  10.6692000  2
     11      9     25     23     1  0.0000000  0.6508444  3
     11     12     14     16     1  180.0000771  27.8236000  2
     11     21     20     16     1  180.0000771  16.7360000  2
      9      8      6     23     1  180.0000771  0.4184000  2
      9      8      6     23     1  0.0000000  1.6024720  3
      9     11     12     14     1  180.0000771  7.7404000  2
      9     11     21     20     1  180.0000771  6.0668000  2
      9     11     21     22     1  180.0000771  6.0668000  2
      9     25     23     28     1  0.0000000  0.6508444  3
      8      6     23     25     1  0.0000000  0.6508444  3
      8      6     23     28     1  0.0000000  4.9162000  2
      8      6     23     28     1  0.0000000  0.6024960  3
      8      9     11     12     1  111.3175476  2.8766255  1
      8      9     11     12     1  360.2803541  8.9557265  2
      8      9     11     12     1  170.6402730  5.0466571  3
      8      9     11     12     1  94.1874405  1.0877563  4
      8      9     11     21     1  0.0000000  0.0000000  2
      8      9     25     23     1  0.0000000  0.6508444  3
      6      8      9     11     1  0.0000000  2.7196000  2
      6      8      9     11     1  0.0000000  1.6024720  3
      6      8      9     25     1  180.0000771  0.4184000  2
      6      8      9     25     1  0.0000000  1.6024720  3
      6     23     25      9     1  180.0000771  0.8368000  1
      6     23     25      9     1  180.0000771  1.0460000  2
      6     23     25      9     1  0.0000000  0.7531200  3
      6     23     28     29     1  205.9192881  7.4260979  1
      6     23     28     29     1  139.8342598  2.7062530  2
      6     23     28     29     1  162.4967694  0.6384366  3
      3      6      8      9     1  180.0000771  0.4184000  2
      3      6      8      9     1  0.0000000  1.6024720  3
      3      6     23     25     1  180.0000771  0.8368000  1
      3      6     23     25     1  180.0000771  1.0460000  2
      3      6     23     25     1  0.0000000  0.7531200  3
      3      6     23     28     1  0.0000000  0.6508444  3
      2      3      6      8     1  0.0000000  0.6508444  3
      2      3      6     23     1  166.4680711  1.8691183  1
      2      3      6     23     1  245.8171056  1.6072836  2
      2      3      6     23     1  343.9541475  3.1439413  3
      2      3      6     23     1  276.0301184  0.5833751  4
      2      3      6     23     1  305.2631309  0.1825061  5
      2      3      6     23     1  141.1880605  0.1605819  6
     61     62     65     66     1  102.0640437  1.3238929  1
     61     62     65     66     1  359.6931543  2.6363217  2
     61     62     65     66     1  299.8701285  1.0089716  3
     61     62     65     66     1  32.0810137  0.6802807  4
     61     62     65     66     1  303.5561298  0.4080237  5
     61     62     65     66     1  19.4940083  0.1809664  6
     58     56     61     62     1  205.9192881  7.4260979  1
     58     56     61     62     1  139.8342598  2.7062530  2
     58     56     61     62     1  162.4967694  0.6384366  3
     56     61     62     63     1  358.2841537  1.2303889  3
     56     61     62     64     1  358.2841537  1.2303889  3
     56     61     62     65     1  1.7533008  3.8863921  1
     56     61     62     65     1  350.8821503  4.0762620  2
     56     61     62     65     1  358.2841537  1.2303889  3
     55     41     39     58     1  0.0000000  0.0000000  2
     51     50     54     55     1  180.0000771  20.0832000  2
     48     46     45     55     1  180.0000771  12.5520000  2
     48     50     54     55     1  180.0000771  20.0832000  2
     47     46     45     55     1  180.0000771  12.5520000  2
     47     46     48     50     1  180.0000771  5.6484000  2
     46     45     55     54     1  180.0000771  22.8028000  2
     46     48     50     51     1  180.0000771  6.2760000  2
     46     48     50     54     1  180.0000771  6.2760000  2
     45     46     48     50     1  180.0000771  5.6484000  2
     45     55     54     50     1  180.0000771  17.3636000  2
     44     42     41     55     1  180.0000771  7.1128000  2
     44     45     46     47     1  180.0000771  12.5520000  2
     44     45     46     48     1  180.0000771  12.5520000  2
     44     45     55     54     1  180.0000771  22.8028000  2
     42     41     39     58     1  0.0000000  0.0000000  2
     42     41     55     45     1  180.0000771  6.9036000  2
     42     41     55     54     1  180.0000771  6.9036000  2
     42     44     45     46     1  180.0000771  10.6692000  2
     42     44     45     55     1  180.0000771  10.6692000  2
     41     39     58     56     1  0.0000000  0.6508444  3
     41     42     44     45     1  180.0000771  41.8400000  2
     41     55     45     44     1  180.0000771  22.8028000  2
     41     55     45     46     1  180.0000771  22.8028000  2
     41     55     54     50     1  180.0000771  17.3636000  2
     39     38     36     56     1  180.0000771  0.4184000  2
     39     38     36     56     1  0.0000000  1.6024720  3
     39     41     42     44     1  180.0000771  7.1128000  2
     39     41     55     45     1  180.0000771  6.9036000  2
     39     41     55     54     1  180.0000771  6.9036000  2
     39     58     56     61     1  0.0000000  0.6508444  3
     38     36     56     58     1  0.0000000  0.6508444  3
     38     36     56     61     1  0.0000000  4.9162000  2
     38     36     56     61     1  0.0000000  0.6024960  3
     38     39     41     42     1  43.9252188  4.9644415  1
     38     39     41     42     1  350.8843505  7.6529544  2
     38     39     41     42     1  175.4175750  2.7849959  3
     38     39     41     55     1  0.0000000  0.0000000  2
     38     39     58     56     1  0.0000000  0.6508444  3
     36     38     39     41     1  0.0000000  2.7196000  2
     36     38     39     41     1  0.0000000  1.6024720  3
     36     38     39     58     1  180.0000771  0.4184000  2
     36     38     39     58     1  0.0000000  1.6024720  3
     36     56     58     39     1  180.0000771  0.8368000  1
     36     56     58     39     1  180.0000771  1.0460000  2
     36     56     58     39     1  0.0000000  0.7531200  3
     36     56     61     62     1  205.9192881  7.4260979  1
     36     56     61     62     1  139.8342598  2.7062530  2
     36     56     61     62     1  162.4967694  0.6384366  3
     33     36     38     39     1  180.0000771  0.4184000  2
     33     36     38     39     1  0.0000000  1.6024720  3
     33     36     56     58     1  180.0000771  0.8368000  1
     33     36     56     58     1  180.0000771  1.0460000  2
     33     36     56     58     1  0.0000000  0.7531200  3
     33     36     56     61     1  0.0000000  0.6508444  3
     32     33     36     38     1  0.0000000  0.6508444  3
     32     33     36     56     1  166.4680711  1.8691183  1
     32     33     36     56     1  245.8171056  1.6072836  2
     32     33     36     56     1  343.9541475  3.1439413  3
     32     33     36     56     1  276.0301184  0.5833751  4
     32     33     36     56     1  305.2631309  0.1825061  5
     32     33     36     56     1  141.1880605  0.1605819  6
     31     29     32     33     1  0.0000000  1.0460000  3
     30     29     32     33     1  0.0000000  1.0460000  3
     29     32     33     36     1  23.5781701  2.2089428  1
     29     32     33     36     1  223.6480656  0.3818904  2
     29     32     33     36     1  181.6070977  2.2406784  3
     29     32     33     36     1  215.1811222  0.3337158  4
     91     92     95     96     1  102.0640437  1.3238929  1
     91     92     95     96     1  359.6931543  2.6363217  2
     91     92     95     96     1  299.8701285  1.0089716  3
     91     92     95     96     1  32.0810137  0.6802807  4
     91     92     95     96     1  303.5561298  0.4080237  5
     91     92     95     96     1  19.4940083  0.1809664  6
     88     86     91     92     1  205.9192881  7.4260979  1
     88     86     91     92     1  139.8342598  2.7062530  2
     88     86     91     92     1  162.4967694  0.6384366  3
     86     91     92     93     1  358.2841537  1.2303889  3
     86     91     92     94     1  358.2841537  1.2303889  3
     86     91     92     95     1  1.7533008  3.8863921  1
     86     91     92     95     1  350.8821503  4.0762620  2
     86     91     92     95     1  358.2841537  1.2303889  3
     84     74     72     88     1  0.0000000  0.0000000  2
     80     79     83     84     1  180.0000771  20.0832000  2
     79     83     84     85     1  180.0000771  16.7360000  2
     77     75     74     84     1  180.0000771  7.7404000  2
     77     79     83     84     1  180.0000771  20.0832000  2
     75     74     72     88     1  0.0000000  0.0000000  2
     75     74     84     83     1  180.0000771  6.0668000  2
     75     74     84     85     1  180.0000771  6.0668000  2
     75     77     79     80     1  180.0000771  10.6692000  2
     75     77     79     83     1  180.0000771  10.6692000  2
     74     72     88     86     1  0.0000000  0.6508444  3
     74     75     77     79     1  180.0000771  27.8236000  2
     74     84     83     79     1  180.0000771  16.7360000  2
     72     71     69     86     1  180.0000771  0.4184000  2
     72     71     69     86     1  0.0000000  1.6024720  3
     72     74     75     77     1  180.0000771  7.7404000  2
     72     74     84     83     1  180.0000771  6.0668000  2
     72     74     84     85     1  180.0000771  6.0668000  2
     72     88     86     91     1  0.0000000  0.6508444  3
     71     69     86     88     1  0.0000000  0.6508444  3
     71     69     86     91     1  0.0000000  4.9162000  2
     71     69     86     91     1  0.0000000  0.6024960  3
     71     72     74     75     1  111.3175476  2.8766255  1
     71     72     74     75     1  360.2803541  8.9557265  2
     71     72     74     75     1  170.6402730  5.0466571  3
     71     72     74     75     1  94.1874405  1.0877563  4
     71     72     74     84     1  0.0000000  0.0000000  2
     71     72     88     86     1  0.0000000  0.6508444  3
     69     71     72     74     1  0.0000000  2.7196000  2
     69     71     72     74     1  0.0000000  1.6024720  3
     69     71     72     88     1  180.0000771  0.4184000  2
     69     71     72     88     1  0.0000000  1.6024720  3
     69     86     88     72     1  180.0000771  0.8368000  1
     69     86     88     72     1  180.0000771  1.0460000  2
     69     86     88     72     1  0.0000000  0.7531200  3
     69     86     91     92     1  205.9192881  7.4260979  1
     69     86     91     92     1  139.8342598  2.7062530  2
     69     86     91     92     1  162.4967694  0.6384366  3
     66     69     71     72     1  180.0000771  0.4184000  2
     66     69     71     72     1  0.0000000  1.6024720  3
     66     69     86     88     1  180.0000771  0.8368000  1
     66     69     86     88     1  180.0000771  1.0460000  2
     66     69     86     88     1  0.0000000  0.7531200  3
     66     69     86     91     1  0.0000000  0.6508444  3
     65     66     69     71     1  0.0000000  0.6508444  3
     65     66     69     86     1  166.4680711  1.8691183  1
     65     66     69     86     1  245.8171056  1.6072836  2
     65     66     69     86     1  343.9541475  3.1439413  3
     65     66     69     86     1  276.0301184  0.5833751  4
     65     66     69     86     1  305.2631309  0.1825061  5
     65     66     69     86     1  141.1880605  0.1605819  6
     64     62     65     66     1  0.0000000  1.0460000  3
     63     62     65     66     1  0.0000000  1.0460000  3
     62     65     66     69     1  23.5781701  2.2089428  1
     62     65     66     69     1  223.6480656  0.3818904  2
     62     65     66     69     1  181.6070977  2.2406784  3
     62     65     66     69     1  215.1811222  0.3337158  4
    124    125    128    129     1  102.0640437  1.3238929  1
    124    125    128    129     1  359.6931543  2.6363217  2
    124    125    128    129     1  299.8701285  1.0089716  3
    124    125    128    129     1  32.0810137  0.6802807  4
    124    125    128    129     1  303.5561298  0.4080237  5
    124    125    128    129     1  19.4940083  0.1809664  6
    121    119    124    125     1  205.9192881  7.4260979  1
    121    119    124    125     1  139.8342598  2.7062530  2
    121    119    124    125     1  162.4967694  0.6384366  3
    119    124    125    126     1  358.2841537  1.2303889  3
    119    124    125    127     1  358.2841537  1.2303889  3
    119    124    125    128     1  1.7533008  3.8863921  1
    119    124    125    128     1  350.8821503  4.0762620  2
    119    124    125    128     1  358.2841537  1.2303889  3
    118    104    102    121     1  0.0000000  0.0000000  2
    114    113    117    118     1  180.0000771  20.0832000  2
    111    109    108    118     1  180.0000771  12.5520000  2
    111    113    117    118     1  180.0000771  20.0832000  2
    110    109    108    118     1  180.0000771  12.5520000  2
    110    109    111    113     1  180.0000771  5.6484000  2
    109    108    118    117     1  180.0000771  22.8028000  2
    109    111    113    114     1  180.0000771  6.2760000  2
    109    111    113    117     1  180.0000771  6.2760000  2
    108    109    111    113     1  180.0000771  5.6484000  2
    108    118    117    113     1  180.0000771  17.3636000  2
    107    105    104    118     1  180.0000771  7.1128000  2
    107    108    109    110     1  180.0000771  12.5520000  2
    107    108    109    111     1  180.0000771  12.5520000  2
    107    108    118    117     1  180.0000771  22.8028000  2
    105    104    102    121     1  0.0000000  0.0000000  2
    105    104    118    108     1  180.0000771  6.9036000  2
    105    104    118    117     1  180.0000771  6.9036000  2
    105    107    108    109     1  180.0000771  10.6692000  2
    105    107    108    118     1  180.0000771  10.6692000  2
    104    102    121    119     1  0.0000000  0.6508444  3
    104    105    107    108     1  180.0000771  41.8400000  2
    104    118    108    107     1  180.0000771  22.8028000  2
    104    118    108    109     1  180.0000771  22.8028000  2
    104    118    117    113     1  180.0000771  17.3636000  2
    102    101     99    119     1  180.0000771  0.4184000  2
    102    101     99    119     1  0.0000000  1.6024720  3
    102    104    105    107     1  180.0000771  7.1128000  2
    102    104    118    108     1  180.0000771  6.9036000  2
    102    104    118    117     1  180.0000771  6.9036000  2
    102    121    119    124     1  0.0000000  0.6508444  3
    101     99    119    121     1  0.0000000  0.6508444  3
    101     99    119    124     1  0.0000000  4.9162000  2
    101     99    119    124     1  0.0000000  0.6024960  3
    101    102    104    105     1  43.9252188  4.9644415  1
    101    102    104    105     1  350.8843505  7.6529544  2
    101    102    104    105     1  175.4175750  2.7849959  3
    101    102    104    118     1  0.0000000  0.0000000  2
    101    102    121    119     1  0.0000000  0.6508444  3
     99    101    102    104     1  0.0000000  2.7196000  2
     99    101    102    104     1  0.0000000  1.6024720  3
     99    101    102    121     1  180.0000771  0.4184000  2
     99    101    102    121     1  0.0000000  1.6024720  3
     99    119    121    102     1  180.0000771  0.8368000  1
     99    119    121    102     1  180.0000771  1.0460000  2
     99    119    121    102     1  0.0000000  0.7531200  3
     99    119    124    125     1  205.9192881  7.4260979  1
     99    119    124    125     1  139.8342598  2.7062530  2
     99    119    124    125     1  162.4967694  0.6384366  3
     96     99    101    102     1  180.0000771  0.4184000  2
     96     99    101    102     1  0.0000000  1.6024720  3
     96     99    119    121     1  180.0000771  0.8368000  1
     96     99    119    121     1  180.0000771  1.0460000  2
     96     99    119    121     1  0.0000000  0.7531200  3
     96     99    119    124     1  0.0000000  0.6508444  3
     95     96     99    101     1  0.0000000  0.6508444  3
     95     96     99    119     1  166.4680711  1.8691183  1
     95     96     99    119     1  245.8171056  1.6072836  2
     95     96     99    119     1  343.9541475  3.1439413  3
     95     96     99    119     1  276.0301184  0.5833751  4
     95     96     99    119     1  305.2631309  0.1825061  5
     95     96     99    119     1  141.1880605  0.1605819  6
     94     92     95     96     1  0.0000000  1.0460000  3
     93     92     95     96     1  0.0000000  1.0460000  3
     92     95     96     99     1  23.5781701  2.2089428  1
     92     95     96     99     1  223.6480656  0.3818904  2
     92     95     96     99     1  181.6070977  2.2406784  3
     92     95     96     99     1  215.1811222  0.3337158  4
    156    157    160    161     1  102.0640437  1.3238929  1
    156    157    160    161     1  359.6931543  2.6363217  2
    156    157    160    161     1  299.8701285  1.0089716  3
    156    157    160    161     1  32.0810137  0.6802807  4
    156    157    160    161     1  303.5561298  0.4080237  5
    156    157    160    161     1  19.4940083  0.1809664  6
    153    151    156    157     1  205.9192881  7.4260979  1
    153    151    156    157     1  139.8342598  2.7062530  2
    153    151    156    157     1  162.4967694  0.6384366  3
    151    156    157    158     1  358.2841537  1.2303889  3
    151    156    157    159     1  358.2841537  1.2303889  3
    151    156    157    160     1  1.7533008  3.8863921  1
    151    156    157    160     1  350.8821503  4.0762620  2
    151    156    157    160     1  358.2841537  1.2303889  3
    150    137    135    153     1  0.0000000  0.0000000  2
    146    142    141    150     1  180.0000771  14.6440000  2
    146    147    149    150     1  180.0000771  28.4512000  2
    143    142    141    150     1  180.0000771  14.6440000  2
    143    142    146    147     1  180.0000771  20.0832000  2
    142    141    150    149     1  180.0000771  22.8028000  2
    142    146    147    149     1  180.0000771  28.4512000  2
    141    142    146    147     1  180.0000771  20.0832000  2
    141    150    149    147     1  180.0000771  17.3636000  2
    140    138    137    150     1  180.0000771  7.1128000  2
    140    141    142    143     1  180.0000771  14.6440000  2
    140    141    142    146     1  180.0000771  14.6440000  2
    140    141    150    149     1  180.0000771  22.8028000  2
    138    137    135    153     1  0.0000000  0.0000000  2
    138    137    150    141     1  180.0000771  6.9036000  2
    138    137    150    149     1  180.0000771  6.9036000  2
    138    140    141    142     1  180.0000771  10.6692000  2
    138    140    141    150     1  180.0000771  10.6692000  2
    137    135    153    151     1  0.0000000  0.6508444  3
    137    138    140    141     1  180.0000771  41.8400000  2
    137    150    141    140     1  180.0000771  22.8028000  2
    137    150    141    142     1  180.0000771  22.8028000  2
    137    150    149    147     1  180.0000771  17.3636000  2
    135    134    132    151     1  180.0000771  0.4184000  2
    135    134    132    151     1  0.0000000  1.6024720  3
    135    137    138    140     1  180.0000771  7.1128000  2
    135    137    150    141     1  180.0000771  6.9036000  2
    135    137    150    149     1  180.0000771  6.9036000  2
    135    153    151    156     1  0.0000000  0.6508444  3
    134    132    151    153     1  0.0000000  0.6508444  3
    134    132    151    156     1  0.0000000  4.9162000  2
    134    132    151    156     1  0.0000000  0.6024960  3
    134    135    137    138     1  40.5923174  6.4642382  1
    134    135    137    138     1  356.5234527  7.6510298  2
    134    135    137    138     1  179.0053766  2.4009466  3
    134    135    137    150     1  0.0000000  0.0000000  2
    134    135    153    151     1  0.0000000  0.6508444  3
    132    134    135    137     1  0.0000000  2.7196000  2
    132    134    135    137     1  0.0000000  1.6024720  3
    132    134    135    153     1  180.0000771  0.4184000  2
    132    134    135    153     1  0.0000000  1.6024720  3
    132    151    153    135     1  180.0000771  0.8368000  1
    132    151    153    135     1  180.0000771  1.0460000  2
    132    151    153    135     1  0.0000000  0.7531200  3
    132    151    156    157     1  205.9192881  7.4260979  1
    132    151    156    157     1  139.8342598  2.7062530  2
    132    151    156    157     1  162.4967694  0.6384366  3
    129    132    134    135     1  180.0000771  0.4184000  2
    129    132    134    135     1  0.0000000  1.6024720  3
    129    132    151    153     1  180.0000771  0.8368000  1
    129    132    151    153     1  180.0000771  1.0460000  2
    129    132    151    153     1  0.0000000  0.7531200  3
    129    132    151    156     1  0.0000000  0.6508444  3
    128    129    132    134     1  0.0000000  0.6508444  3
    128    129    132    151     1  166.4680711  1.8691183  1
    128    129    132    151     1  245.8171056  1.6072836  2
    128    129    132    151     1  343.9541475  3.1439413  3
    128    129    132    151     1  276.0301184  0.5833751  4
    128    129    132    151     1  305.2631309  0.1825061  5
    128    129    132    151     1  141.1880605  0.1605819  6
    127    125    128    129     1  0.0000000  1.0460000  3
    126    125    128    129     1  0.0000000  1.0460000  3
    125    128    129    132     1  23.5781701  2.2089428  1
    125    128    129    132     1  223.6480656  0.3818904  2
    125    128    129    132     1  181.6070977  2.2406784  3
    125    128    129    132     1  215.1811222  0.3337158  4
    188    189    192    193     1  102.0640437  1.3238929  1
    188    189    192    193     1  359.6931543  2.6363217  2
    188    189    192    193     1  299.8701285  1.0089716  3
    188    189    192    193     1  32.0810137  0.6802807  4
    188    189    192    193     1  303.5561298  0.4080237  5
    188    189    192    193     1  19.4940083  0.1809664  6
    185    183    188    189     1  205.9192881  7.4260979  1
    185    183    188    189     1  139.8342598  2.7062530  2
    185    183    188    189     1  162.4967694  0.6384366  3
    183    188    189    190     1  358.2841537  1.2303889  3
    183    188    189    191     1  358.2841537  1.2303889  3
    183    188    189    192     1  1.7533008  3.8863921  1
    183    188    189    192     1  350.8821503  4.0762620  2
    183    188    189    192     1  358.2841537  1.2303889  3
    182    169    167    185     1  0.0000000  0.0000000  2
    178    174    173    182     1  180.0000771  14.6440000  2
    178    179    181    182     1  180.0000771  28.4512000  2
    175    174    173    182     1  180.0000771  14.6440000  2
    175    174    178    179     1  180.0000771  20.0832000  2
    174    173    182    181     1  180.0000771  22.8028000  2
    174    178    179    181     1  180.0000771  28.4512000  2
    173    174    178    179     1  180.0000771  20.0832000  2
    173    182    181    179     1  180.0000771  17.3636000  2
    172    170    169    182     1  180.0000771  7.1128000  2
    172    173    174    175     1  180.0000771  14.6440000  2
    172    173    174    178     1  180.0000771  14.6440000  2
    172    173    182    181     1  180.0000771  22.8028000  2
    170    169    167    185     1  0.0000000  0.0000000  2
    170    169    182    173     1  180.0000771  6.9036000  2
    170    169    182    181     1  180.0000771  6.9036000  2
    170    172    173    174     1  180.0000771  10.6692000  2
    170    172    173    182     1  180.0000771  10.6692000  2
    169    167    185    183     1  0.0000000  0.6508444  3
    169    170    172    173     1  180.0000771  41.8400000  2
    169    182    173    172     1  180.0000771  22.8028000  2
    169    182    173    174     1  180.0000771  22.8028000  2
    169    182    181    179     1  180.0000771  17.3636000  2
    167    166    164    183     1  180.0000771  0.4184000  2
    167    166    164    183     1  0.0000000  1.6024720  3
    167    169    170    172     1  180.0000771  7.1128000  2
    167    169    182    173     1  180.0000771  6.9036000  2
    167    169    182    181     1  180.0000771  6.9036000  2
    167    185    183    188     1  0.0000000  0.6508444  3
    166    164    183    185     1  0.0000000  0.6508444  3
    166    164    183    188     1  0.0000000  4.9162000  2
    166    164    183    188     1  0.0000000  0.6024960  3
    166    167    169    170     1  40.5923174  6.4642382  1
    166    167    169    170     1  356.5234527  7.6510298  2
    166    167    169    170     1  179.0053766  2.4009466  3
    166    167    169    182     1  0.0000000  0.0000000  2
    166    167    185    183     1  0.0000000  0.6508444  3
    164    166    167    169     1  0.0000000  2.7196000  2
    164    166    167    169     1  0.0000000  1.6024720  3
    164    166    167    185     1  180.0000771  0.4184000  2
    164    166    167    185     1  0.0000000  1.6024720  3
    164    183    185    167     1  180.0000771  0.8368000  1
    164    183    185    167     1  180.0000771  1.0460000  2
    164    183    185    167     1  0.0000000  0.7531200  3
    164    183    188    189     1  205.9192881  7.4260979  1
    164    183    188    189     1  139.8342598  2.7062530  2
    164    183    188    189     1  162.4967694  0.6384366  3
    161    164    166    167     1  180.0000771  0.4184000  2
    161    164    166    167     1  0.0000000  1.6024720  3
    161    164    183    185     1  180.0000771  0.8368000  1
    161    164    183    185     1  180.0000771  1.0460000  2
    161    164    183    185     1  0.0000000  0.7531200  3
    161    164    183    188     1  0.0000000  0.6508444  3
    160    161    164    166     1  0.0000000  0.6508444  3
    160    161    164    183     1  166.4680711  1.8691183  1
    160    161    164    183     1  245.8171056  1.6072836  2
    160    161    164    183     1  343.9541475  3.1439413  3
    160    161    164    183     1  276.0301184  0.5833751  4
    160    161    164    183     1  305.2631309  0.1825061  5
    160    161    164    183     1  141.1880605  0.1605819  6
    159    157    160    161     1  0.0000000  1.0460000  3
    158    157    160    161     1  0.0000000  1.0460000  3
    157    160    161    164     1  23.5781701  2.2089428  1
    157    160    161    164     1  223.6480656  0.3818904  2
    157    160    161    164     1  181.6070977  2.2406784  3
    157    160    161    164     1  215.1811222  0.3337158  4
    220    221    224    225     1  102.0640437  1.3238929  1
    220    221    224    225     1  359.6931543  2.6363217  2
    220    221    224    225     1  299.8701285  1.0089716  3
    220    221    224    225     1  32.0810137  0.6802807  4
    220    221    224    225     1  303.5561298  0.4080237  5
    220    221    224    225     1  19.4940083  0.1809664  6
    217    215    220    221     1  205.9192881  7.4260979  1
    217    215    220    221     1  139.8342598  2.7062530  2
    217    215    220    221     1  162.4967694  0.6384366  3
    215    220    221    222     1  358.2841537  1.2303889  3
    215    220    221    223     1  358.2841537  1.2303889  3
    215    220    221    224     1  1.7533008  3.8863921  1
    215    220    221    224     1  350.8821503  4.0762620  2
    215    220    221    224     1  358.2841537  1.2303889  3
    213    201    199    217     1  0.0000000  0.0000000  2
    210    209    211    213     1  180.0000771  5.6484000  2
    209    211    213    214     1  180.0000771  5.6484000  2
    205    204    209    210     1  180.0000771  9.1002000  2
    205    204    209    211     1  180.0000771  9.1002000  2
    204    202    201    213     1  180.0000771  7.7404000  2
    204    209    211    213     1  180.0000771  5.6484000  2
    202    201    199    217     1  0.0000000  0.0000000  2
    202    201    213    211     1  180.0000771  6.0668000  2
    202    201    213    214     1  180.0000771  6.0668000  2
    202    204    209    210     1  180.0000771  9.1002000  2
    202    204    209    210     1  0.0000000  1.2552000  3
    202    204    209    211     1  180.0000771  9.1002000  2
    201    199    217    215     1  0.0000000  0.6508444  3
    201    202    204    205     1  180.0000771  27.8236000  2
    201    202    204    209     1  180.0000771  27.8236000  2
    201    213    211    209     1  180.0000771  5.6484000  2
    199    198    196    215     1  180.0000771  0.4184000  2
    199    198    196    215     1  0.0000000  1.6024720  3
    199    201    202    204     1  180.0000771  7.7404000  2
    199    201    213    211     1  180.0000771  6.0668000  2
    199    201    213    214     1  180.0000771  6.0668000  2
    199    217    215    220     1  0.0000000  0.6508444  3
    198    196    215    217     1  0.0000000  0.6508444  3
    198    196    215    220     1  0.0000000  4.9162000  2
    198    196    215    220     1  0.0000000  0.6024960  3
    198    199    201    202     1  94.7062406  2.3565543  1
    198    199    201    202     1  357.8521533  9.1132541  2
    198    199    201    202     1  178.4857766  2.8349529  3
    198    199    201    202     1  85.3644364  0.5761786  4
    198    199    201    213     1  0.0000000  0.0000000  2
    198    199    217    215     1  0.0000000  0.6508444  3
    196    198    199    201     1  0.0000000  2.7196000  2
    196    198    199    201     1  0.0000000  1.6024720  3
    196    198    199    217     1  180.0000771  0.4184000  2
    196    198    199    217     1  0.0000000  1.6024720  3
    196    215    217    199     1  180.0000771  0.8368000  1
    196    215    217    199     1  180.0000771  1.0460000  2
    196    215    217    199     1  0.0000000  0.7531200  3
    196    215    220    221     1  205.9192881  7.4260979  1
    196    215    220    221     1  139.8342598  2.7062530  2
    196    215    220    221     1  162.4967694  0.6384366  3
    193    196    198    199     1  180.0000771  0.4184000  2
    193    196    198    199     1  0.0000000  1.6024720  3
    193    196    215    217     1  180.0000771  0.8368000  1
    193    196    215    217     1  180.0000771  1.0460000  2
    193    196    215    217     1  0.0000000  0.7531200  3
    193    196    215    220     1  0.0000000  0.6508444  3
    192    193    196    198     1  0.0000000  0.6508444  3
    192    193    196    215     1  166.4680711  1.8691183  1
    192    193    196    215     1  245.8171056  1.6072836  2
    192    193    196    215     1  343.9541475  3.1439413  3
    192    193    196    215     1  276.0301184  0.5833751  4
    192    193    196    215     1  305.2631309  0.1825061  5
    192    193    196    215     1  141.1880605  0.1605819  6
    191    189    192    193     1  0.0000000  1.0460000  3
    190    189    192    193     1  0.0000000  1.0460000  3
    189    192    193    196     1  23.5781701  2.2089428  1
    189    192    193    196     1  223.6480656  0.3818904  2
    189    192    193    196     1  181.6070977  2.2406784  3
    189    192    193    196     1  215.1811222  0.3337158  4
    252    253    256    257     1  102.0640437  1.3238929  1
    252    253    256    257     1  359.6931543  2.6363217  2
    252    253    256    257     1  299.8701285  1.0089716  3
    252    253    256    257     1  32.0810137  0.6802807  4
    252    253    256    257     1  303.5561298  0.4080237  5
    252    253    256    257     1  19.4940083  0.1809664  6
    249    247    252    253     1  205.9192881  7.4260979  1
    249    247    252    253     1  139.8342598  2.7062530  2
    249    247    252    253     1  162.4967694  0.6384366  3
    247    252    253    254     1  358.2841537  1.2303889  3
    247    252    253    255     1  358.2841537  1.2303889  3
    247    252    253    256     1  1.7533008  3.8863921  1
    247    252    253    256     1  350.8821503  4.0762620  2
    247    252    253    256     1  358.2841537  1.2303889  3
    245    233    231    249     1  0.0000000  0.0000000  2
    242    241    243    245     1  180.0000771  5.6484000  2
    241    243    245    246     1  180.0000771  5.6484000  2
    237    236    241    242     1  180.0000771  9.1002000  2
    237    236    241    243     1  180.0000771  9.1002000  2
    236    234    233    245     1  180.0000771  7.7404000  2
    236    241    243    245     1  180.0000771  5.6484000  2
    234    233    231    249     1  0.0000000  0.0000000  2
    234    233    245    243     1  180.0000771  6.0668000  2
    234    233    245    246     1  180.0000771  6.0668000  2
    234    236    241    242     1  180.0000771  9.1002000  2
    234    236    241    242     1  0.0000000  1.2552000  3
    234    236    241    243     1  180.0000771  9.1002000  2
    233    231    249    247     1  0.0000000  0.6508444  3
    233    234    236    237     1  180.0000771  27.8236000  2
    233    234    236    241     1  180.0000771  27.8236000  2
    233    245    243    241     1  180.0000771  5.6484000  2
    231    230    228    247     1  180.0000771  0.4184000  2
    231    230    228    247     1  0.0000000  1.6024720  3
    231    233    234    236     1  180.0000771  7.7404000  2
    231    233    245    243     1  180.0000771  6.0668000  2
    231    233    245    246     1  180.0000771  6.0668000  2
    231    249    247    252     1  0.0000000  0.6508444  3
    230    228    247    249     1  0.0000000  0.6508444  3
    230    228    247    252     1  0.0000000  4.9162000  2
    230    228    247    252     1  0.0000000  0.6024960  3
    230    231    233    234     1  94.7062406  2.3565543  1
    230    231    233    234     1  357.8521533  9.1132541  2
    230    231    233    234     1  178.4857766  2.8349529  3
    230    231    233    234     1  85.3644364  0.5761786  4
    230    231    233    245     1  0.0000000  0.0000000  2
    230    231    249    247     1  0.0000000  0.6508444  3
    228    230    231    233     1  0.0000000  2.7196000  2
    228    230    231    233     1  0.0000000  1.6024720  3
    228    230    231    249     1  180.0000771  0.4184000  2
    228    230    231    249     1  0.0000000  1.6024720  3
    228    247    249    231     1  180.0000771  0.8368000  1
    228    247    249    231     1  180.0000771  1.0460000  2
    228    247    249    231     1  0.0000000  0.7531200  3
    228    247    252    253     1  205.9192881  7.4260979  1
    228    247    252    253     1  139.8342598  2.7062530  2
    228    247    252    253     1  162.4967694  0.6384366  3
    225    228    230    231     1  180.0000771  0.4184000  2
    225    228    230    231     1  0.0000000  1.6024720  3
    225    228    247    249     1  180.0000771  0.8368000  1
    225    228    247    249     1  180.0000771  1.0460000  2
    225    228    247    249     1  0.0000000  0.7531200  3
    225    228    247    252     1  0.0000000  0.6508444  3
    224    225    228    230     1  0.0000000  0.6508444  3
    224    225    228    247     1  166.4680711  1.8691183  1
    224    225    228    247     1  245.8171056  1.6072836  2
    224    225    228    247     1  343.9541475  3.1439413  3
    224    225    228    247     1  276.0301184  0.5833751  4
    224    225    228    247     1  305.2631309  0.1825061  5
    224    225    228    247     1  141.1880605  0.1605819  6
    223    221    224    225     1  0.0000000  1.0460000  3
    222    221    224    225     1  0.0000000  1.0460000  3
    221    224    225    228     1  23.5781701  2.2089428  1
    221    224    225    228     1  223.6480656  0.3818904  2
    221    224    225    228     1  181.6070977  2.2406784  3
    221    224    225    228     1  215.1811222  0.3337158  4
    282    283    286    287     1  102.0640437  1.3238929  1
    282    283    286    287     1  359.6931543  2.6363217  2
    282    283    286    287     1  299.8701285  1.0089716  3
    282    283    286    287     1  32.0810137  0.6802807  4
    282    283    286    287     1  303.5561298  0.4080237  5
    282    283    286    287     1  19.4940083  0.1809664  6
    279    277    282    283     1  205.9192881  7.4260979  1
    279    277    282    283     1  139.8342598  2.7062530  2
    279    277    282    283     1  162.4967694  0.6384366  3
    277    282    283    284     1  358.2841537  1.2303889  3
    277    282    283    285     1  358.2841537  1.2303889  3
    277    282    283    286     1  1.7533008  3.8863921  1
    277    282    283    286     1  350.8821503  4.0762620  2
    277    282    283    286     1  358.2841537  1.2303889  3
    275    265    263    279     1  0.0000000  0.0000000  2
    271    270    274    275     1  180.0000771  20.0832000  2
    270    274    275    276     1  180.0000771  16.7360000  2
    268    266    265    275     1  180.0000771  7.7404000  2
    268    270    274    275     1  180.0000771  20.0832000  2
    266    265    263    279     1  0.0000000  0.0000000  2
    266    265    275    274     1  180.0000771  6.0668000  2
    266    265    275    276     1  180.0000771  6.0668000  2
    266    268    270    271     1  180.0000771  10.6692000  2
    266    268    270    274     1  180.0000771  10.6692000  2
    265    263    279    277     1  0.0000000  0.6508444  3
    265    266    268    270     1  180.0000771  27.8236000  2
    265    275    274    270     1  180.0000771  16.7360000  2
    263    262    260    277     1  180.0000771  0.4184000  2
    263    262    260    277     1  0.0000000  1.6024720  3
    263    265    266    268     1  180.0000771  7.7404000  2
    263    265    275    274     1  180.0000771  6.0668000  2
    263    265    275    276     1  180.0000771  6.0668000  2
    263    279    277    282     1  0.0000000  0.6508444  3
    262    260    277    279     1  0.0000000  0.6508444  3
    262    260    277    282     1  0.0000000  4.9162000  2
    262    260    277    282     1  0.0000000  0.6024960  3
    262    263    265    266     1  111.3175476  2.8766255  1
    262    263    265    266     1  360.2803541  8.9557265  2
    262    263    265    266     1  170.6402730  5.0466571  3
    262    263    265    266     1  94.1874405  1.0877563  4
    262    263    265    275     1  0.0000000  0.0000000  2
    262    263    279    277     1  0.0000000  0.6508444  3
    260    262    263    265     1  0.0000000  2.7196000  2
    260    262    263    265     1  0.0000000  1.6024720  3
    260    262    263    279     1  180.0000771  0.4184000  2
    260    262    263    279     1  0.0000000  1.6024720  3
    260    277    279    263     1  180.0000771  0.8368000  1
    260    277    279    263     1  180.0000771  1.0460000  2
    260    277    279    263     1  0.0000000  0.7531200  3
    260    277    282    283     1  205.9192881  7.4260979  1
    260    277    282    283     1  139.8342598  2.7062530  2
    260    277    282    283     1  162.4967694  0.6384366  3
    257    260    262    263     1  180.0000771  0.4184000  2
    257    260    262    263     1  0.0000000  1.6024720  3
    257    260    277    279     1  180.0000771  0.8368000  1
    257    260    277    279     1  180.0000771  1.0460000  2
    257    260    277    279     1  0.0000000  0.7531200  3
    257    260    277    282     1  0.0000000  0.6508444  3
    256    257    260    262     1  0.0000000  0.6508444  3
    256    257    260    277     1  166.4680711  1.8691183  1
    256    257    260    277     1  245.8171056  1.6072836  2
    256    257    260    277     1  343.9541475  3.1439413  3
    256    257    260    277     1  276.0301184  0.5833751  4
    256    257    260    277     1  305.2631309  0.1825061  5
    256    257    260    277     1  141.1880605  0.1605819  6
    255    253    256    257     1  0.0000000  1.0460000  3
    254    253    256    257     1  0.0000000  1.0460000  3
    253    256    257    260     1  23.5781701  2.2089428  1
    253    256    257    260     1  223.6480656  0.3818904  2
    253    256    257    260     1  181.6070977  2.2406784  3
    253    256    257    260     1  215.1811222  0.3337158  4
    315    316    319    320     1  102.0640437  1.3238929  1
    315    316    319    320     1  359.6931543  2.6363217  2
    315    316    319    320     1  299.8701285  1.0089716  3
    315    316    319    320     1  32.0810137  0.6802807  4
    315    316    319    320     1  303.5561298  0.4080237  5
    315    316    319    320     1  19.4940083  0.1809664  6
    312    310    315    316     1  205.9192881  7.4260979  1
    312    310    315    316     1  139.8342598  2.7062530  2
    312    310    315    316     1  162.4967694  0.6384366  3
    310    315    316    317     1  358.2841537  1.2303889  3
    310    315    316    318     1  358.2841537  1.2303889  3
    310    315    316    319     1  1.7533008  3.8863921  1
    310    315    316    319     1  350.8821503  4.0762620  2
    310    315    316    319     1  358.2841537  1.2303889  3
    309    295    293    312     1  0.0000000  0.0000000  2
    305    304    308    309     1  180.0000771  20.0832000  2
    302    300    299    309     1  180.0000771  12.5520000  2
    302    304    308    309     1  180.0000771  20.0832000  2
    301    300    299    309     1  180.0000771  12.5520000  2
    301    300    302    304     1  180.0000771  5.6484000  2
    300    299    309    308     1  180.0000771  22.8028000  2
    300    302    304    305     1  180.0000771  6.2760000  2
    300    302    304    308     1  180.0000771  6.2760000  2
    299    300    302    304     1  180.0000771  5.6484000  2
    299    309    308    304     1  180.0000771  17.3636000  2
    298    296    295    309     1  180.0000771  7.1128000  2
    298    299    300    301     1  180.0000771  12.5520000  2
    298    299    300    302     1  180.0000771  12.5520000  2
    298    299    309    308     1  180.0000771  22.8028000  2
    296    295    293    312     1  0.0000000  0.0000000  2
    296    295    309    299     1  180.0000771  6.9036000  2
    296    295    309    308     1  180.0000771  6.9036000  2
    296    298    299    300     1  180.0000771  10.6692000  2
    296    298    299    309     1  180.0000771  10.6692000  2
    295    293    312    310     1  0.0000000  0.6508444  3
    295    296    298    299     1  180.0000771  41.8400000  2
    295    309    299    298     1  180.0000771  22.8028000  2
    295    309    299    300     1  180.0000771  22.8028000  2
    295    309    308    304     1  180.0000771  17.3636000  2
    293    292    290    310     1  180.0000771  0.4184000  2
    293    292    290    310     1  0.0000000  1.6024720  3
    293    295    296    298     1  180.0000771  7.1128000  2
    293    295    309    299     1  180.0000771  6.9036000  2
    293    295    309    308     1  180.0000771  6.9036000  2
    293    312    310    315     1  0.0000000  0.6508444  3
    292    290    310    312     1  0.0000000  0.6508444  3
    292    290    310    315     1  0.0000000  4.9162000  2
    292    290    310    315     1  0.0000000  0.6024960  3
    292    293    295    296     1  43.9252188  4.9644415  1
    292    293    295    296     1  350.8843505  7.6529544  2
    292    293    295    296     1  175.4175750  2.7849959  3
    292    293    295    309     1  0.0000000  0.0000000  2
    292    293    312    310     1  0.0000000  0.6508444  3
    290    292    293    295     1  0.0000000  2.7196000  2
    290    292    293    295     1  0.0000000  1.6024720  3
    290    292    293    312     1  180.0000771  0.4184000  2
    290    292    293    312     1  0.0000000  1.6024720  3
    290    310    312    293     1  180.0000771  0.8368000  1
    290    310    312    293     1  180.0000771  1.0460000  2
    290    310    312    293     1  0.0000000  0.7531200  3
    290    310    315    316     1  205.9192881  7.4260979  1
    290    310    315    316     1  139.8342598  2.7062530  2
    290    310    315    316     1  162.4967694  0.6384366  3
    287    290    292    293     1  180.0000771  0.4184000  2
    287    290    292    293     1  0.0000000  1.6024720  3
    287    290    310    312     1  180.0000771  0.8368000  1
    287    290    310    312     1  180.0000771  1.0460000  2
    287    290    310    312     1  0.0000000  0.7531200  3
    287    290    310    315     1  0.0000000  0.6508444  3
    286    287    290    292     1  0.0000000  0.6508444  3
    286    287    290    310     1  166.4680711  1.8691183  1
    286    287    290    310     1  245.8171056  1.6072836  2
    286    287    290    310     1  343.9541475  3.1439413  3
    286    287    290    310     1  276.0301184  0.5833751  4
    286    287    290    310     1  305.2631309  0.1825061  5
    286    287    290    310     1  141.1880605  0.1605819  6
    285    283    286    287     1  0.0000000  1.0460000  3
    284    283    286    287     1  0.0000000  1.0460000  3
    283    286    287    290     1  23.5781701  2.2089428  1
    283    286    287    290     1  223.6480656  0.3818904  2
    283    286    287    290     1  181.6070977  2.2406784  3
    283    286    287    290     1  215.1811222  0.3337158  4
    345    346    349    350     1  102.0640437  1.3238929  1
    345    346    349    350     1  359.6931543  2.6363217  2
    345    346    349    350     1  299.8701285  1.0089716  3
    345    346    349    350     1  32.0810137  0.6802807  4
    345    346    349    350     1  303.5561298  0.4080237  5
    345    346    349    350     1  19.4940083  0.1809664  6
    342    340    345    346     1  205.9192881  7.4260979  1
    342    340    345    346     1  139.8342598  2.7062530  2
    342    340    345    346     1  162.4967694  0.6384366  3
    340    345    346    347     1  358.2841537  1.2303889  3
    340    345    346    348     1  358.2841537  1.2303889  3
    340    345    346    349     1  1.7533008  3.8863921  1
    340    345    346    349     1  350.8821503  4.0762620  2
    340    345    346    349     1  358.2841537  1.2303889  3
    338    328    326    342     1  0.0000000  0.0000000  2
    334    333    337    338     1  180.0000771  20.0832000  2
    333    337    338    339     1  180.0000771  16.7360000  2
    331    329    328    338     1  180.0000771  7.7404000  2
    331    333    337    338     1  180.0000771  20.0832000  2
    329    328    326    342     1  0.0000000  0.0000000  2
    329    328    338    337     1  180.0000771  6.0668000  2
    329    328    338    339     1  180.0000771  6.0668000  2
    329    331    333    334     1  180.0000771  10.6692000  2
    329    331    333    337     1  180.0000771  10.6692000  2
    328    326    342    340     1  0.0000000  0.6508444  3
    328    329    331    333     1  180.0000771  27.8236000  2
    328    338    337    333     1  180.0000771  16.7360000  2
    326    325    323    340     1  180.0000771  0.4184000  2
    326    325    323    340     1  0.0000000  1.6024720  3
    326    328    329    331     1  180.0000771  7.7404000  2
    326    328    338    337     1  180.0000771  6.0668000  2
    326    328    338    339     1  180.0000771  6.0668000  2
    326    342    340    345     1  0.0000000  0.6508444  3
    325    323    340    342     1  0.0000000  0.6508444  3
    325    323    340    345     1  0.0000000  4.9162000  2
    325    323    340    345     1  0.0000000  0.6024960  3
    325    326    328    329     1  111.3175476  2.8766255  1
    325    326    328    329     1  360.2803541  8.9557265  2
    325    326    328    329     1  170.6402730  5.0466571  3
    325    326    328    329     1  94.1874405  1.0877563  4
    325    326    328    338     1  0.0000000  0.0000000  2
    325    326    342    340     1  0.0000000  0.6508444  3
    323    325    326    328     1  0.0000000  2.7196000  2
    323    325    326    328     1  0.0000000  1.6024720  3
    323    325    326    342     1  180.0000771  0.4184000  2
    323    325    326    342     1  0.0000000  1.6024720  3
    323    340    342    326     1  180.0000771  0.8368000  1
    323    340    342    326     1  180.0000771  1.0460000  2
    323    340    342    326     1  0.0000000  0.7531200  3
    323    340    345    346     1  205.9192881  7.4260979  1
    323    340    345    346     1  139.8342598  2.7062530  2
    323    340    345    346     1  162.4967694  0.6384366  3
    320    323    325    326     1  180.0000771  0.4184000  2
    320    323    325    326     1  0.0000000  1.6024720  3
    320    323    340    342     1  180.0000771  0.8368000  1
    320    323    340    342     1  180.0000771  1.0460000  2
    320    323    340    342     1  0.0000000  0.7531200  3
    320    323    340    345     1  0.0000000  0.6508444  3
    319    320    323    325     1  0.0000000  0.6508444  3
    319    320    323    340     1  166.4680711  1.8691183  1
    319    320    323    340     1  245.8171056  1.6072836  2
    319    320    323    340     1  343.9541475  3.1439413  3
    319    320    323    340     1  276.0301184  0.5833751  4
    319    320    323    340     1  305.2631309  0.1825061  5
    319    320    323    340     1  141.1880605  0.1605819  6
    318    316    319    320     1  0.0000000  1.0460000  3
    317    316    319    320     1  0.0000000  1.0460000  3
    316    319    320    323     1  23.5781701  2.2089428  1
    316    319    320    323     1  223.6480656  0.3818904  2
    316    319    320    323     1  181.6070977  2.2406784  3
    316    319    320    323     1  215.1811222  0.3337158  4
    372    358    356    375     1  0.0000000  0.0000000  2
    368    367    371    372     1  180.0000771  20.0832000  2
    365    363    362    372     1  180.0000771  12.5520000  2
    365    367    371    372     1  180.0000771  20.0832000  2
    364    363    362    372     1  180.0000771  12.5520000  2
    364    363    365    367     1  180.0000771  5.6484000  2
    363    362    372    371     1  180.0000771  22.8028000  2
    363    365    367    368     1  180.0000771  6.2760000  2
    363    365    367    371     1  180.0000771  6.2760000  2
    362    363    365    367     1  180.0000771  5.6484000  2
    362    372    371    367     1  180.0000771  17.3636000  2
    361    359    358    372     1  180.0000771  7.1128000  2
    361    362    363    364     1  180.0000771  12.5520000  2
    361    362    363    365     1  180.0000771  12.5520000  2
    361    362    372    371     1  180.0000771  22.8028000  2
    359    358    356    375     1  0.0000000  0.0000000  2
    359    358    372    362     1  180.0000771  6.9036000  2
    359    358    372    371     1  180.0000771  6.9036000  2
    359    361    362    363     1  180.0000771  10.6692000  2
    359    361    362    372     1  180.0000771  10.6692000  2
    358    356    375    373     1  0.0000000  0.6508444  3
    358    359    361    362     1  180.0000771  41.8400000  2
    358    372    362    361     1  180.0000771  22.8028000  2
    358    372    362    363     1  180.0000771  22.8028000  2
    358    372    371    367     1  180.0000771  17.3636000  2
    356    355    353    373     1  180.0000771  0.4184000  2
    356    355    353    373     1  0.0000000  1.6024720  3
    356    358    359    361     1  180.0000771  7.1128000  2
    356    358    372    362     1  180.0000771  6.9036000  2
    356    358    372    371     1  180.0000771  6.9036000  2
    356    375    373    378     1  0.0000000  0.6508444  3
    355    353    373    375     1  0.0000000  0.6508444  3
    355    353    373    378     1  0.0000000  4.9162000  2
    355    353    373    378     1  0.0000000  0.6024960  3
    355    356    358    359     1  43.9252188  4.9644415  1
    355    356    358    359     1  350.8843505  7.6529544  2
    355    356    358    359     1  175.4175750  2.7849959  3
    355    356    358    372     1  0.0000000  0.0000000  2
    355    356    375    373     1  0.0000000  0.6508444  3
    353    355    356    358     1  0.0000000  2.7196000  2
    353    355    356    358     1  0.0000000  1.6024720  3
    353    355    356    375     1  180.0000771  0.4184000  2
    353    355    356    375     1  0.0000000  1.6024720  3
    353    373    375    356     1  180.0000771  0.8368000  1
    353    373    375    356     1  180.0000771  1.0460000  2
    353    373    375    356     1  0.0000000  0.7531200  3
    350    353    355    356     1  180.0000771  0.4184000  2
    350    353    355    356     1  0.0000000  1.6024720  3
    350    353    373    375     1  180.0000771  0.8368000  1
    350    353    373    375     1  180.0000771  1.0460000  2
    350    353    373    375     1  0.0000000  0.7531200  3
    350    353    373    378     1  0.0000000  0.6508444  3
    349    350    353    355     1  0.0000000  0.6508444  3
    349    350    353    373     1  166.4680711  1.8691183  1
    349    350    353    373     1  245.8171056  1.6072836  2
    349    350    353    373     1  343.9541475  3.1439413  3
    349    350    353    373     1  276.0301184  0.5833751  4
    349    350    353    373     1  305.2631309  0.1825061  5
    349    350    353    373     1  141.1880605  0.1605819  6
    348    346    349    350     1  0.0000000  1.0460000  3
    347    346    349    350     1  0.0000000  1.0460000  3
    346    349    350    353     1  23.5781701  2.2089428  1
    346    349    350    353     1  223.6480656  0.3818904  2
    346    349    350    353     1  181.6070977  2.2406784  3
    346    349    350    353     1  215.1811222  0.3337158  4
     11     20     21     22     4  180.0000771  43.9320000  2
     14     17     16     20     4  180.0000771  4.6024000  2
     21     12     11      9     4  180.0000771  4.1840000  2
     41     45     55     54     4  180.0000771  0.0000000  2
     51     48     50     54     4  180.0000771  4.6024000  2
     45     48     46     47     4  180.0000771  43.9320000  2
     44     46     45     55     4  180.0000771  0.0000000  2
     55     42     41     39     4  180.0000771  4.1840000  2
     74     83     84     85     4  180.0000771  43.9320000  2
     77     80     79     83     4  180.0000771  4.6024000  2
     84     75     74     72     4  180.0000771  4.1840000  2
    108    104    118    117     4  180.0000771  0.0000000  2
    114    111    113    117     4  180.0000771  4.6024000  2
    108    111    109    110     4  180.0000771  43.9320000  2
    109    118    108    107     4  180.0000771  0.0000000  2
    118    105    104    102     4  180.0000771  4.1840000  2
    141    137    150    149     4  180.0000771  0.0000000  2
    141    143    142    146     4  180.0000771  4.6024000  2
    140    142    141    150     4  180.0000771  0.0000000  2
    150    138    137    135     4  180.0000771  4.1840000  2
    173    169    182    181     4  180.0000771  0.0000000  2
    173    175    174    178     4  180.0000771  4.6024000  2
    174    182    173    172     4  180.0000771  0.0000000  2
    170    182    169    167     4  180.0000771  4.1840000  2
    201    211    213    214     4  180.0000771  43.9320000  2
    204    211    209    210     4  180.0000771  43.9320000  2
    209    202    204    205     4  180.0000771  4.6024000  2
    213    202    201    199     4  180.0000771  4.1840000  2
    233    243    245    246     4  180.0000771  43.9320000  2
    236    243    241    242     4  180.0000771  43.9320000  2
    241    234    236    237     4  180.0000771  4.6024000  2
    245    234    233    231     4  180.0000771  4.1840000  2
    265    274    275    276     4  180.0000771  43.9320000  2
    268    271    270    274     4  180.0000771  4.6024000  2
    275    266    265    263     4  180.0000771  4.1840000  2
    299    295    309    308     4  180.0000771  0.0000000  2
    305    302    304    308     4  180.0000771  4.6024000  2
    299    302    300    301     4  180.0000771  43.9320000  2
    300    309    299    298     4  180.0000771  0.0000000  2
    309    296    295    293     4  180.0000771  4.1840000  2
    328    337    338    339     4  180.0000771  43.9320000  2
    331    334    333    337     4  180.0000771  4.6024000  2
    338    329    328    326     4  180.0000771  4.1840000  2
    362    358    372    371     4  180.0000771  0.0000000  2
    368    365    367    371     4  180.0000771  4.6024000  2
    362    365    363    364     4  180.0000771  43.9320000  2
    363    372    362    361     4  180.0000771  0.0000000  2
    372    359    358    356     4  180.0000771  4.1840000  2
     27     25     23     28     1  0.0000000  1.0460000  1
     27     25     23     28     1  0.0000000  0.0000000  3
     26     25     23     28     1  0.0000000  1.0460000  1
     26     25     23     28     1  0.0000000  0.0000000  3
     24     23     25     26     1  0.0000000  0.6508444  3
     24     23     25     27     1  0.0000000  0.6508444  3
     24     23     28     29     1  0.0000000  1.6038667  3
     19     17     16     20     1  180.0000771  10.0416000  2
     18     17     16     20     1  180.0000771  10.0416000  2
     15     14     16     17     1  180.0000771  10.6692000  2
     15     14     16     20     1  180.0000771  10.6692000  2
     14     16     17     18     1  180.0000771  10.0416000  2
     14     16     17     19     1  180.0000771  10.0416000  2
     13     12     11     21     1  180.0000771  7.7404000  2
     13     12     14     15     1  180.0000771  27.8236000  2
     13     12     14     16     1  180.0000771  27.8236000  2
     11      9     25     26     1  0.0000000  0.6508444  3
     11      9     25     27     1  0.0000000  0.6508444  3
     11     12     14     15     1  180.0000771  27.8236000  2
     10      9     11     12     1  0.0000000  0.0000000  2
     10      9     11     21     1  0.0000000  0.0000000  2
     10      9     25     23     1  0.0000000  0.6508444  3
     10      9     25     26     1  0.0000000  0.6508444  3
     10      9     25     27     1  0.0000000  0.6508444  3
      9     11     12     13     1  180.0000771  7.7404000  2
      9     25     23     24     1  0.0000000  0.6508444  3
      8      6     23     24     1  0.0000000  1.0460000  1
      8      6     23     24     1  0.0000000  0.0000000  3
      8      9     25     26     1  0.0000000  1.0460000  1
      8      9     25     26     1  0.0000000  0.0000000  3
      8      9     25     27     1  0.0000000  1.0460000  1
      8      9     25     27     1  0.0000000  0.0000000  3
      7      6      8      9     1  0.0000000  1.6038667  3
      7      6     23     24     1  0.0000000  0.6508444  3
      7      6     23     25     1  0.0000000  0.6508444  3
      7      6     23     28     1  0.0000000  1.0460000  1
      7      6     23     28     1  0.0000000  0.0000000  3
      6      8      9     10     1  0.0000000  1.6038667  3
      6     23     25     26     1  0.0000000  0.6694400  3
      6     23     25     27     1  0.0000000  0.6694400  3
      5      3      6      7     1  0.0000000  0.6508444  3
      5      3      6      8     1  0.0000000  1.0460000  1
      5      3      6     23     1  0.0000000  0.6508444  3
      4      3      6      7     1  0.0000000  0.6508444  3
      4      3      6      8     1  0.0000000  1.0460000  1
      4      3      6     23     1  0.0000000  0.6508444  3
      3      6     23     24     1  0.0000000  0.6508444  3
      2      3      6      7     1  0.0000000  1.0460000  1
      1      2      3      4     1  0.0000000  0.6973333  3
      1      2      3      5     1  0.0000000  0.6973333  3
      1      2      3      6     1  0.0000000  0.6973333  3
     60     58     56     61     1  0.0000000  1.0460000  1
     60     58     56     61     1  0.0000000  0.0000000  3
     59     58     56     61     1  0.0000000  1.0460000  1
     59     58     56     61     1  0.0000000  0.0000000  3
     57     56     58     59     1  0.0000000  0.6508444  3
     57     56     58     60     1  0.0000000  0.6508444  3
     57     56     61     62     1  0.0000000  1.6038667  3
     53     51     50     54     1  180.0000771  10.0416000  2
     52     51     50     54     1  180.0000771  10.0416000  2
     49     48     50     51     1  180.0000771  6.2760000  2
     49     48     50     54     1  180.0000771  6.2760000  2
     48     50     51     52     1  180.0000771  10.0416000  2
     48     50     51     53     1  180.0000771  10.0416000  2
     47     46     48     49     1  180.0000771  5.6484000  2
     45     46     48     49     1  180.0000771  5.6484000  2
     43     42     41     55     1  180.0000771  7.1128000  2
     43     42     44     45     1  180.0000771  41.8400000  2
     41     39     58     59     1  0.0000000  0.6508444  3
     41     39     58     60     1  0.0000000  0.6508444  3
     40     39     41     42     1  0.0000000  0.0000000  2
     40     39     41     55     1  0.0000000  0.0000000  2
     40     39     58     56     1  0.0000000  0.6508444  3
     40     39     58     59     1  0.0000000  0.6508444  3
     40     39     58     60     1  0.0000000  0.6508444  3
     39     41     42     43     1  180.0000771  7.1128000  2
     39     58     56     57     1  0.0000000  0.6508444  3
     38     36     56     57     1  0.0000000  1.0460000  1
     38     36     56     57     1  0.0000000  0.0000000  3
     38     39     58     59     1  0.0000000  1.0460000  1
     38     39     58     59     1  0.0000000  0.0000000  3
     38     39     58     60     1  0.0000000  1.0460000  1
     38     39     58     60     1  0.0000000  0.0000000  3
     37     36     38     39     1  0.0000000  1.6038667  3
     37     36     56     57     1  0.0000000  0.6508444  3
     37     36     56     58     1  0.0000000  0.6508444  3
     37     36     56     61     1  0.0000000  1.0460000  1
     37     36     56     61     1  0.0000000  0.0000000  3
     36     38     39     40     1  0.0000000  1.6038667  3
     36     56     58     59     1  0.0000000  0.6694400  3
     36     56     58     60     1  0.0000000  0.6694400  3
     35     33     36     37     1  0.0000000  0.6508444  3
     35     33     36     38     1  0.0000000  1.0460000  1
     35     33     36     56     1  0.0000000  0.6508444  3
     34     33     36     37     1  0.0000000  0.6508444  3
     34     33     36     38     1  0.0000000  1.0460000  1
     34     33     36     56     1  0.0000000  0.6508444  3
     33     36     56     57     1  0.0000000  0.6508444  3
     32     33     36     37     1  0.0000000  1.0460000  1
     29     32     33     34     1  0.0000000  1.6038667  3
     29     32     33     35     1  0.0000000  1.6038667  3
     90     88     86     91     1  0.0000000  1.0460000  1
     90     88     86     91     1  0.0000000  0.0000000  3
     89     88     86     91     1  0.0000000  1.0460000  1
     89     88     86     91     1  0.0000000  0.0000000  3
     87     86     88     89     1  0.0000000  0.6508444  3
     87     86     88     90     1  0.0000000  0.6508444  3
     87     86     91     92     1  0.0000000  1.6038667  3
     82     80     79     83     1  180.0000771  10.0416000  2
     81     80     79     83     1  180.0000771  10.0416000  2
     78     77     79     80     1  180.0000771  10.6692000  2
     78     77     79     83     1  180.0000771  10.6692000  2
     77     79     80     81     1  180.0000771  10.0416000  2
     77     79     80     82     1  180.0000771  10.0416000  2
     76     75     74     84     1  180.0000771  7.7404000  2
     76     75     77     78     1  180.0000771  27.8236000  2
     76     75     77     79     1  180.0000771  27.8236000  2
     74     72     88     89     1  0.0000000  0.6508444  3
     74     72     88     90     1  0.0000000  0.6508444  3
     74     75     77     78     1  180.0000771  27.8236000  2
     73     72     74     75     1  0.0000000  0.0000000  2
     73     72     74     84     1  0.0000000  0.0000000  2
     73     72     88     86     1  0.0000000  0.6508444  3
     73     72     88     89     1  0.0000000  0.6508444  3
     73     72     88     90     1  0.0000000  0.6508444  3
     72     74     75     76     1  180.0000771  7.7404000  2
     72     88     86     87     1  0.0000000  0.6508444  3
     71     69     86     87     1  0.0000000  1.0460000  1
     71     69     86     87     1  0.0000000  0.0000000  3
     71     72     88     89     1  0.0000000  1.0460000  1
     71     72     88     89     1  0.0000000  0.0000000  3
     71     72     88     90     1  0.0000000  1.0460000  1
     71     72     88     90     1  0.0000000  0.0000000  3
     70     69     71     72     1  0.0000000  1.6038667  3
     70     69     86     87     1  0.0000000  0.6508444  3
     70     69     86     88     1  0.0000000  0.6508444  3
     70     69     86     91     1  0.0000000  1.0460000  1
     70     69     86     91     1  0.0000000  0.0000000  3
     69     71     72     73     1  0.0000000  1.6038667  3
     69     86     88     89     1  0.0000000  0.6694400  3
     69     86     88     90     1  0.0000000  0.6694400  3
     68     66     69     70     1  0.0000000  0.6508444  3
     68     66     69     71     1  0.0000000  1.0460000  1
     68     66     69     86     1  0.0000000  0.6508444  3
     67     66     69     70     1  0.0000000  0.6508444  3
     67     66     69     71     1  0.0000000  1.0460000  1
     67     66     69     86     1  0.0000000  0.6508444  3
     66     69     86     87     1  0.0000000  0.6508444  3
     65     66     69     70     1  0.0000000  1.0460000  1
     62     65     66     67     1  0.0000000  1.6038667  3
     62     65     66     68     1  0.0000000  1.6038667  3
    123    121    119    124     1  0.0000000  1.0460000  1
    123    121    119    124     1  0.0000000  0.0000000  3
    122    121    119    124     1  0.0000000  1.0460000  1
    122    121    119    124     1  0.0000000  0.0000000  3
    120    119    121    122     1  0.0000000  0.6508444  3
    120    119    121    123     1  0.0000000  0.6508444  3
    120    119    124    125     1  0.0000000  1.6038667  3
    116    114    113    117     1  180.0000771  10.0416000  2
    115    114    113    117     1  180.0000771  10.0416000  2
    112    111    113    114     1  180.0000771  6.2760000  2
    112    111    113    117     1  180.0000771  6.2760000  2
    111    113    114    115     1  180.0000771  10.0416000  2
    111    113    114    116     1  180.0000771  10.0416000  2
    110    109    111    112     1  180.0000771  5.6484000  2
    108    109    111    112     1  180.0000771  5.6484000  2
    106    105    104    118     1  180.0000771  7.1128000  2
    106    105    107    108     1  180.0000771  41.8400000  2
    104    102    121    122     1  0.0000000  0.6508444  3
    104    102    121    123     1  0.0000000  0.6508444  3
    103    102    104    105     1  0.0000000  0.0000000  2
    103    102    104    118     1  0.0000000  0.0000000  2
    103    102    121    119     1  0.0000000  0.6508444  3
    103    102    121    122     1  0.0000000  0.6508444  3
    103    102    121    123     1  0.0000000  0.6508444  3
    102    104    105    106     1  180.0000771  7.1128000  2
    102    121    119    120     1  0.0000000  0.6508444  3
    101     99    119    120     1  0.0000000  1.0460000  1
    101     99    119    120     1  0.0000000  0.0000000  3
    101    102    121    122     1  0.0000000  1.0460000  1
    101    102    121    122     1  0.0000000  0.0000000  3
    101    102    121    123     1  0.0000000  1.0460000  1
    101    102    121    123     1  0.0000000  0.0000000  3
    100     99    101    102     1  0.0000000  1.6038667  3
    100     99    119    120     1  0.0000000  0.6508444  3
    100     99    119    121     1  0.0000000  0.6508444  3
    100     99    119    124     1  0.0000000  1.0460000  1
    100     99    119    124     1  0.0000000  0.0000000  3
     99    101    102    103     1  0.0000000  1.6038667  3
     99    119    121    122     1  0.0000000  0.6694400  3
     99    119    121    123     1  0.0000000  0.6694400  3
     98     96     99    100     1  0.0000000  0.6508444  3
     98     96     99    101     1  0.0000000  1.0460000  1
     98     96     99    119     1  0.0000000  0.6508444  3
     97     96     99    100     1  0.0000000  0.6508444  3
     97     96     99    101     1  0.0000000  1.0460000  1
     97     96     99    119     1  0.0000000  0.6508444  3
     96     99    119    120     1  0.0000000  0.6508444  3
     95     96     99    100     1  0.0000000  1.0460000  1
     92     95     96     97     1  0.0000000  1.6038667  3
     92     95     96     98     1  0.0000000  1.6038667  3
    155    153    151    156     1  0.0000000  1.0460000  1
    155    153    151    156     1  0.0000000  0.0000000  3
    154    153    151    156     1  0.0000000  1.0460000  1
    154    153    151    156     1  0.0000000  0.0000000  3
    152    151    153    154     1  0.0000000  0.6508444  3
    152    151    153    155     1  0.0000000  0.6508444  3
    152    151    156    157     1  0.0000000  1.6038667  3
    148    147    149    150     1  180.0000771  28.4512000  2
    145    143    142    146     1  180.0000771  10.0416000  2
    144    143    142    146     1  180.0000771  10.0416000  2
    142    146    147    148     1  180.0000771  28.4512000  2
    141    142    143    144     1  180.0000771  10.0416000  2
    141    142    143    145     1  180.0000771  10.0416000  2
    139    138    137    150     1  180.0000771  7.1128000  2
    139    138    140    141     1  180.0000771  41.8400000  2
    137    135    153    154     1  0.0000000  0.6508444  3
    137    135    153    155     1  0.0000000  0.6508444  3
    136    135    137    138     1  0.0000000  0.0000000  2
    136    135    137    150     1  0.0000000  0.0000000  2
    136    135    153    151     1  0.0000000  0.6508444  3
    136    135    153    154     1  0.0000000  0.6508444  3
    136    135    153    155     1  0.0000000  0.6508444  3
    135    137    138    139     1  180.0000771  7.1128000  2
    135    153    151    152     1  0.0000000  0.6508444  3
    134    132    151    152     1  0.0000000  1.0460000  1
    134    132    151    152     1  0.0000000  0.0000000  3
    134    135    153    154     1  0.0000000  1.0460000  1
    134    135    153    154     1  0.0000000  0.0000000  3
    134    135    153    155     1  0.0000000  1.0460000  1
    134    135    153    155     1  0.0000000  0.0000000  3
    133    132    134    135     1  0.0000000  1.6038667  3
    133    132    151    152     1  0.0000000  0.6508444  3
    133    132    151    153     1  0.0000000  0.6508444  3
    133    132    151    156     1  0.0000000  1.0460000  1
    133    132    151    156     1  0.0000000  0.0000000  3
    132    134    135    136     1  0.0000000  1.6038667  3
    132    151    153    154     1  0.0000000  0.6694400  3
    132    151    153    155     1  0.0000000  0.6694400  3
    131    129    132    133     1  0.0000000  0.6508444  3
    131    129    132    134     1  0.0000000  1.0460000  1
    131    129    132    151     1  0.0000000  0.6508444  3
    130    129    132    133     1  0.0000000  0.6508444  3
    130    129    132    134     1  0.0000000  1.0460000  1
    130    129    132    151     1  0.0000000  0.6508444  3
    129    132    151    152     1  0.0000000  0.6508444  3
    128    129    132    133     1  0.0000000  1.0460000  1
    125    128    129    130     1  0.0000000  1.6038667  3
    125    128    129    131     1  0.0000000  1.6038667  3
    187    185    183    188     1  0.0000000  1.0460000  1
    187    185    183    188     1  0.0000000  0.0000000  3
    186    185    183    188     1  0.0000000  1.0460000  1
    186    185    183    188     1  0.0000000  0.0000000  3
    184    183    185    186     1  0.0000000  0.6508444  3
    184    183    185    187     1  0.0000000  0.6508444  3
    184    183    188    189     1  0.0000000  1.6038667  3
    180    179    181    182     1  180.0000771  28.4512000  2
    177    175    174    178     1  180.0000771  10.0416000  2
    176    175    174    178     1  180.0000771  10.0416000  2
    174    178    179    180     1  180.0000771  28.4512000  2
    173    174    175    176     1  180.0000771  10.0416000  2
    173    174    175    177     1  180.0000771  10.0416000  2
    171    170    169    182     1  180.0000771  7.1128000  2
    171    170    172    173     1  180.0000771  41.8400000  2
    169    167    185    186     1  0.0000000  0.6508444  3
    169    167    185    187     1  0.0000000  0.6508444  3
    168    167    169    170     1  0.0000000  0.0000000  2
    168    167    169    182     1  0.0000000  0.0000000  2
    168    167    185    183     1  0.0000000  0.6508444  3
    168    167    185    186     1  0.0000000  0.6508444  3
    168    167    185    187     1  0.0000000  0.6508444  3
    167    169    170    171     1  180.0000771  7.1128000  2
    167    185    183    184     1  0.0000000  0.6508444  3
    166    164    183    184     1  0.0000000  1.0460000  1
    166    164    183    184     1  0.0000000  0.0000000  3
    166    167    185    186     1  0.0000000  1.0460000  1
    166    167    185    186     1  0.0000000  0.0000000  3
    166    167    185    187     1  0.0000000  1.0460000  1
    166    167    185    187     1  0.0000000  0.0000000  3
    165    164    166    167     1  0.0000000  1.6038667  3
    165    164    183    184     1  0.0000000  0.6508444  3
    165    164    183    185     1  0.0000000  0.6508444  3
    165    164    183    188     1  0.0000000  1.0460000  1
    165    164    183    188     1  0.0000000  0.0000000  3
    164    166    167    168     1  0.0000000  1.6038667  3
    164    183    185    186     1  0.0000000  0.6694400  3
    164    183    185    187     1  0.0000000  0.6694400  3
    163    161    164    165     1  0.0000000  0.6508444  3
    163    161    164    166     1  0.0000000  1.0460000  1
    163    161    164    183     1  0.0000000  0.6508444  3
    162    161    164    165     1  0.0000000  0.6508444  3
    162    161    164    166     1  0.0000000  1.0460000  1
    162    161    164    183     1  0.0000000  0.6508444  3
    161    164    183    184     1  0.0000000  0.6508444  3
    160    161    164    165     1  0.0000000  1.0460000  1
    157    160    161    162     1  0.0000000  1.6038667  3
    157    160    161    163     1  0.0000000  1.6038667  3
    219    217    215    220     1  0.0000000  1.0460000  1
    219    217    215    220     1  0.0000000  0.0000000  3
    218    217    215    220     1  0.0000000  1.0460000  1
    218    217    215    220     1  0.0000000  0.0000000  3
    216    215    217    218     1  0.0000000  0.6508444  3
    216    215    217    219     1  0.0000000  0.6508444  3
    216    215    220    221     1  0.0000000  1.6038667  3
    212    211    213    214     1  180.0000771  5.6484000  2
    210    209    211    212     1  180.0000771  5.6484000  2
    208    205    204    209     1  0.0000000  0.0000000  3
    207    205    204    209     1  0.0000000  0.0000000  3
    206    205    204    209     1  0.0000000  0.0000000  3
    204    209    211    212     1  180.0000771  5.6484000  2
    203    202    201    213     1  180.0000771  7.7404000  2
    203    202    204    205     1  180.0000771  27.8236000  2
    203    202    204    209     1  180.0000771  27.8236000  2
    202    204    205    206     1  0.0000000  4.8116000  1
    202    204    205    206     1  180.0000771  1.5899200  3
    202    204    205    207     1  0.0000000  4.8116000  1
    202    204    205    207     1  180.0000771  1.5899200  3
    202    204    205    208     1  0.0000000  4.8116000  1
    202    204    205    208     1  180.0000771  1.5899200  3
    201    199    217    218     1  0.0000000  0.6508444  3
    201    199    217    219     1  0.0000000  0.6508444  3
    201    213    211    212     1  180.0000771  5.6484000  2
    200    199    201    202     1  0.0000000  0.0000000  2
    200    199    201    213     1  0.0000000  0.0000000  2
    200    199    217    215     1  0.0000000  0.6508444  3
    200    199    217    218     1  0.0000000  0.6508444  3
    200    199    217    219     1  0.0000000  0.6508444  3
    199    201    202    203     1  180.0000771  7.7404000  2
    199    217    215    216     1  0.0000000  0.6508444  3
    198    196    215    216     1  0.0000000  1.0460000  1
    198    196    215    216     1  0.0000000  0.0000000  3
    198    199    217    218     1  0.0000000  1.0460000  1
    198    199    217    218     1  0.0000000  0.0000000  3
    198    199    217    219     1  0.0000000  1.0460000  1
    198    199    217    219     1  0.0000000  0.0000000  3
    197    196    198    199     1  0.0000000  1.6038667  3
    197    196    215    216     1  0.0000000  0.6508444  3
    197    196    215    217     1  0.0000000  0.6508444  3
    197    196    215    220     1  0.0000000  1.0460000  1
    197    196    215    220     1  0.0000000  0.0000000  3
    196    198    199    200     1  0.0000000  1.6038667  3
    196    215    217    218     1  0.0000000  0.6694400  3
    196    215    217    219     1  0.0000000  0.6694400  3
    195    193    196    197     1  0.0000000  0.6508444  3
    195    193    196    198     1  0.0000000  1.0460000  1
    195    193    196    215     1  0.0000000  0.6508444  3
    194    193    196    197     1  0.0000000  0.6508444  3
    194    193    196    198     1  0.0000000  1.0460000  1
    194    193    196    215     1  0.0000000  0.6508444  3
    193    196    215    216     1  0.0000000  0.6508444  3
    192    193    196    197     1  0.0000000  1.0460000  1
    189    192    193    194     1  0.0000000  1.6038667  3
    189    192    193    195     1  0.0000000  1.6038667  3
    251    249    247    252     1  0.0000000  1.0460000  1
    251    249    247    252     1  0.0000000  0.0000000  3
    250    249    247    252     1  0.0000000  1.0460000  1
    250    249    247    252     1  0.0000000  0.0000000  3
    248    247    249    250     1  0.0000000  0.6508444  3
    248    247    249    251     1  0.0000000  0.6508444  3
    248    247    252    253     1  0.0000000  1.6038667  3
    244    243    245    246     1  180.0000771  5.6484000  2
    242    241    243    244     1  180.0000771  5.6484000  2
    240    237    236    241     1  0.0000000  0.0000000  3
    239    237    236    241     1  0.0000000  0.0000000  3
    238    237    236    241     1  0.0000000  0.0000000  3
    236    241    243    244     1  180.0000771  5.6484000  2
    235    234    233    245     1  180.0000771  7.7404000  2
    235    234    236    237     1  180.0000771  27.8236000  2
    235    234    236    241     1  180.0000771  27.8236000  2
    234    236    237    238     1  0.0000000  4.8116000  1
    234    236    237    238     1  180.0000771  1.5899200  3
    234    236    237    239     1  0.0000000  4.8116000  1
    234    236    237    239     1  180.0000771  1.5899200  3
    234    236    237    240     1  0.0000000  4.8116000  1
    234    236    237    240     1  180.0000771  1.5899200  3
    233    231    249    250     1  0.0000000  0.6508444  3
    233    231    249    251     1  0.0000000  0.6508444  3
    233    245    243    244     1  180.0000771  5.6484000  2
    232    231    233    234     1  0.0000000  0.0000000  2
    232    231    233    245     1  0.0000000  0.0000000  2
    232    231    249    247     1  0.0000000  0.6508444  3
    232    231    249    250     1  0.0000000  0.6508444  3
    232    231    249    251     1  0.0000000  0.6508444  3
    231    233    234    235     1  180.0000771  7.7404000  2
    231    249    247    248     1  0.0000000  0.6508444  3
    230    228    247    248     1  0.0000000  1.0460000  1
    230    228    247    248     1  0.0000000  0.0000000  3
    230    231    249    250     1  0.0000000  1.0460000  1
    230    231    249    250     1  0.0000000  0.0000000  3
    230    231    249    251     1  0.0000000  1.0460000  1
    230    231    249    251     1  0.0000000  0.0000000  3
    229    228    230    231     1  0.0000000  1.6038667  3
    229    228    247    248     1  0.0000000  0.6508444  3
    229    228    247    249     1  0.0000000  0.6508444  3
    229    228    247    252     1  0.0000000  1.0460000  1
    229    228    247    252     1  0.0000000  0.0000000  3
    228    230    231    232     1  0.0000000  1.6038667  3
    228    247    249    250     1  0.0000000  0.6694400  3
    228    247    249    251     1  0.0000000  0.6694400  3
    227    225    228    229     1  0.0000000  0.6508444  3
    227    225    228    230     1  0.0000000  1.0460000  1
    227    225    228    247     1  0.0000000  0.6508444  3
    226    225    228    229     1  0.0000000  0.6508444  3
    226    225    228    230     1  0.0000000  1.0460000  1
    226    225    228    247     1  0.0000000  0.6508444  3
    225    228    247    248     1  0.0000000  0.6508444  3
    224    225    228    229     1  0.0000000  1.0460000  1
    221    224    225    226     1  0.0000000  1.6038667  3
    221    224    225    227     1  0.0000000  1.6038667  3
    281    279    277    282     1  0.0000000  1.0460000  1
    281    279    277    282     1  0.0000000  0.0000000  3
    280    279    277    282     1  0.0000000  1.0460000  1
    280    279    277    282     1  0.0000000  0.0000000  3
    278    277    279    280     1  0.0000000  0.6508444  3
    278    277    279    281     1  0.0000000  0.6508444  3
    278    277    282    283     1  0.0000000  1.6038667  3
    273    271    270    274     1  180.0000771  10.0416000  2
    272    271    270    274     1  180.0000771  10.0416000  2
    269    268    270    271     1  180.0000771  10.6692000  2
    269    268    270    274     1  180.0000771  10.6692000  2
    268    270    271    272     1  180.0000771  10.0416000  2
    268    270    271    273     1  180.0000771  10.0416000  2
    267    266    265    275     1  180.0000771  7.7404000  2
    267    266    268    269     1  180.0000771  27.8236000  2
    267    266    268    270     1  180.0000771  27.8236000  2
    265    263    279    280     1  0.0000000  0.6508444  3
    265    263    279    281     1  0.0000000  0.6508444  3
    265    266    268    269     1  180.0000771  27.8236000  2
    264    263    265    266     1  0.0000000  0.0000000  2
    264    263    265    275     1  0.0000000  0.0000000  2
    264    263    279    277     1  0.0000000  0.6508444  3
    264    263    279    280     1  0.0000000  0.6508444  3
    264    263    279    281     1  0.0000000  0.6508444  3
    263    265    266    267     1  180.0000771  7.7404000  2
    263    279    277    278     1  0.0000000  0.6508444  3
    262    260    277    278     1  0.0000000  1.0460000  1
    262    260    277    278     1  0.0000000  0.0000000  3
    262    263    279    280     1  0.0000000  1.0460000  1
    262    263    279    280     1  0.0000000  0.0000000  3
    262    263    279    281     1  0.0000000  1.0460000  1
    262    263    279    281     1  0.0000000  0.0000000  3
    261    260    262    263     1  0.0000000  1.6038667  3
    261    260    277    278     1  0.0000000  0.6508444  3
    261    260    277    279     1  0.0000000  0.6508444  3
    261    260    277    282     1  0.0000000  1.0460000  1
    261    260    277    282     1  0.0000000  0.0000000  3
    260    262    263    264     1  0.0000000  1.6038667  3
    260    277    279    280     1  0.0000000  0.6694400  3
    260    277    279    281     1  0.0000000  0.6694400  3
    259    257    260    261     1  0.0000000  0.6508444  3
    259    257    260    262     1  0.0000000  1.0460000  1
    259    257    260    277     1  0.0000000  0.6508444  3
    258    257    260    261     1  0.0000000  0.6508444  3
    258    257    260    262     1  0.0000000  1.0460000  1
    258    257    260    277     1  0.0000000  0.6508444  3
    257    260    277    278     1  0.0000000  0.6508444  3
    256    257    260    261     1  0.0000000  1.0460000  1
    253    256    257    258     1  0.0000000  1.6038667  3
    253    256    257    259     1  0.0000000  1.6038667  3
    314    312    310    315     1  0.0000000  1.0460000  1
    314    312    310    315     1  0.0000000  0.0000000  3
    313    312    310    315     1  0.0000000  1.0460000  1
    313    312    310    315     1  0.0000000  0.0000000  3
    311    310    312    313     1  0.0000000  0.6508444  3
    311    310    312    314     1  0.0000000  0.6508444  3
    311    310    315    316     1  0.0000000  1.6038667  3
    307    305    304    308     1  180.0000771  10.0416000  2
    306    305    304    308     1  180.0000771  10.0416000  2
    303    302    304    305     1  180.0000771  6.2760000  2
    303    302    304    308     1  180.0000771  6.2760000  2
    302    304    305    306     1  180.0000771  10.0416000  2
    302    304    305    307     1  180.0000771  10.0416000  2
    301    300    302    303     1  180.0000771  5.6484000  2
    299    300    302    303     1  180.0000771  5.6484000  2
    297    296    295    309     1  180.0000771  7.1128000  2
    297    296    298    299     1  180.0000771  41.8400000  2
    295    293    312    313     1  0.0000000  0.6508444  3
    295    293    312    314     1  0.0000000  0.6508444  3
    294    293    295    296     1  0.0000000  0.0000000  2
    294    293    295    309     1  0.0000000  0.0000000  2
    294    293    312    310     1  0.0000000  0.6508444  3
    294    293    312    313     1  0.0000000  0.6508444  3
    294    293    312    314     1  0.0000000  0.6508444  3
    293    295    296    297     1  180.0000771  7.1128000  2
    293    312    310    311     1  0.0000000  0.6508444  3
    292    290    310    311     1  0.0000000  1.0460000  1
    292    290    310    311     1  0.0000000  0.0000000  3
    292    293    312    313     1  0.0000000  1.0460000  1
    292    293    312    313     1  0.0000000  0.0000000  3
    292    293    312    314     1  0.0000000  1.0460000  1
    292    293    312    314     1  0.0000000  0.0000000  3
    291    290    292    293     1  0.0000000  1.6038667  3
    291    290    310    311     1  0.0000000  0.6508444  3
    291    290    310    312     1  0.0000000  0.6508444  3
    291    290    310    315     1  0.0000000  1.0460000  1
    291    290    310    315     1  0.0000000  0.0000000  3
    290    292    293    294     1  0.0000000  1.6038667  3
    290    310    312    313     1  0.0000000  0.6694400  3
    290    310    312    314     1  0.0000000  0.6694400  3
    289    287    290    291     1  0.0000000  0.6508444  3
    289    287    290    292     1  0.0000000  1.0460000  1
    289    287    290    310     1  0.0000000  0.6508444  3
    288    287    290    291     1  0.0000000  0.6508444  3
    288    287    290    292     1  0.0000000  1.0460000  1
    288    287    290    310     1  0.0000000  0.6508444  3
    287    290    310    311     1  0.0000000  0.6508444  3
    286    287    290    291     1  0.0000000  1.0460000  1
    283    286    287    288     1  0.0000000  1.6038667  3
    283    286    287    289     1  0.0000000  1.6038667  3
    344    342    340    345     1  0.0000000  1.0460000  1
    344    342    340    345     1  0.0000000  0.0000000  3
    343    342    340    345     1  0.0000000  1.0460000  1
    343    342    340    345     1  0.0000000  0.0000000  3
    341    340    342    343     1  0.0000000  0.6508444  3
    341    340    342    344     1  0.0000000  0.6508444  3
    341    340    345    346     1  0.0000000  1.6038667  3
    336    334    333    337     1  180.0000771  10.0416000  2
    335    334    333    337     1  180.0000771  10.0416000  2
    332    331    333    334     1  180.0000771  10.6692000  2
    332    331    333    337     1  180.0000771  10.6692000  2
    331    333    334    335     1  180.0000771  10.0416000  2
    331    333    334    336     1  180.0000771  10.0416000  2
    330    329    328    338     1  180.0000771  7.7404000  2
    330    329    331    332     1  180.0000771  27.8236000  2
    330    329    331    333     1  180.0000771  27.8236000  2
    328    326    342    343     1  0.0000000  0.6508444  3
    328    326    342    344     1  0.0000000  0.6508444  3
    328    329    331    332     1  180.0000771  27.8236000  2
    327    326    328    329     1  0.0000000  0.0000000  2
    327    326    328    338     1  0.0000000  0.0000000  2
    327    326    342    340     1  0.0000000  0.6508444  3
    327    326    342    343     1  0.0000000  0.6508444  3
    327    326    342    344     1  0.0000000  0.6508444  3
    326    328    329    330     1  180.0000771  7.7404000  2
    326    342    340    341     1  0.0000000  0.6508444  3
    325    323    340    341     1  0.0000000  1.0460000  1
    325    323    340    341     1  0.0000000  0.0000000  3
    325    326    342    343     1  0.0000000  1.0460000  1
    325    326    342    343     1  0.0000000  0.0000000  3
    325    326    342    344     1  0.0000000  1.0460000  1
    325    326    342    344     1  0.0000000  0.0000000  3
    324    323    325    326     1  0.0000000  1.6038667  3
    324    323    340    341     1  0.0000000  0.6508444  3
    324    323    340    342     1  0.0000000  0.6508444  3
    324    323    340    345     1  0.0000000  1.0460000  1
    324    323    340    345     1  0.0000000  0.0000000  3
    323    325    326    327     1  0.0000000  1.6038667  3
    323    340    342    343     1  0.0000000  0.6694400  3
    323    340    342    344     1  0.0000000  0.6694400  3
    322    320    323    324     1  0.0000000  0.6508444  3
    322    320    323    325     1  0.0000000  1.0460000  1
    322    320    323    340     1  0.0000000  0.6508444  3
    321    320    323    324     1  0.0000000  0.6508444  3
    321    320    323    325     1  0.0000000  1.0460000  1
    321    320    323    340     1  0.0000000  0.6508444  3
    320    323    340    341     1  0.0000000  0.6508444  3
    319    320    323    324     1  0.0000000  1.0460000  1
    316    319    320    321     1  0.0000000  1.6038667  3
    316    319    320    322     1  0.0000000  1.6038667  3
    377    375    373    378     1  0.0000000  1.0460000  1
    377    375    373    378     1  0.0000000  0.0000000  3
    376    375    373    378     1  0.0000000  1.0460000  1
    376    375    373    378     1  0.0000000  0.0000000  3
    375    373    378    379     1  0.0000000  1.0460000  1
    375    373    378    379     1  0.0000000  0.6694400  3
    374    373    375    376     1  0.0000000  0.6508444  3
    374    373    375    377     1  0.0000000  0.6508444  3
    374    373    378    379     1  0.0000000  0.6973333  3
    370    368    367    371     1  180.0000771  10.0416000  2
    369    368    367    371     1  180.0000771  10.0416000  2
    366    365    367    368     1  180.0000771  6.2760000  2
    366    365    367    371     1  180.0000771  6.2760000  2
    365    367    368    369     1  180.0000771  10.0416000  2
    365    367    368    370     1  180.0000771  10.0416000  2
    364    363    365    366     1  180.0000771  5.6484000  2
    362    363    365    366     1  180.0000771  5.6484000  2
    360    359    358    372     1  180.0000771  7.1128000  2
    360    359    361    362     1  180.0000771  41.8400000  2
    358    356    375    376     1  0.0000000  0.6508444  3
    358    356    375    377     1  0.0000000  0.6508444  3
    357    356    358    359     1  0.0000000  0.0000000  2
    357    356    358    372     1  0.0000000  0.0000000  2
    357    356    375    373     1  0.0000000  0.6508444  3
    357    356    375    376     1  0.0000000  0.6508444  3
    357    356    375    377     1  0.0000000  0.6508444  3
    356    358    359    360     1  180.0000771  7.1128000  2
    356    375    373    374     1  0.0000000  0.6508444  3
    355    353    373    374     1  0.0000000  1.0460000  1
    355    353    373    374     1  0.0000000  0.0000000  3
    355    356    375    376     1  0.0000000  1.0460000  1
    355    356    375    376     1  0.0000000  0.0000000  3
    355    356    375    377     1  0.0000000  1.0460000  1
    355    356    375    377     1  0.0000000  0.0000000  3
    354    353    355    356     1  0.0000000  1.6038667  3
    354    353    373    374     1  0.0000000  0.6508444  3
    354    353    373    375     1  0.0000000  0.6508444  3
    354    353    373    378     1  0.0000000  1.0460000  1
    354    353    373    378     1  0.0000000  0.0000000  3
    353    355    356    357     1  0.0000000  1.6038667  3
    353    373    375    376     1  0.0000000  0.6694400  3
    353    373    375    377     1  0.0000000  0.6694400  3
    353    373    378    379     1  0.0000000  1.0460000  1
    353    373    378    379     1  0.0000000  0.6694400  3
    352    350    353    354     1  0.0000000  0.6508444  3
    352    350    353    355     1  0.0000000  1.0460000  1
    352    350    353    373     1  0.0000000  0.6508444  3
    351    350    353    354     1  0.0000000  0.6508444  3
    351    350    353    355     1  0.0000000  1.0460000  1
    351    350    353    373     1  0.0000000  0.6508444  3
    350    353    373    374     1  0.0000000  0.6508444  3
    349    350    353    354     1  0.0000000  1.0460000  1
    346    349    350    351     1  0.0000000  1.6038667  3
    346    349    350    352     1  0.0000000  1.6038667  3
     16     18     17     19     4  180.0000771  4.1840000  2
     12     16     14     15     4  180.0000771  4.6024000  2
     11     14     12     13     4  180.0000771  4.6024000  2
      2      4      3      5     4  180.0000771  0.0000000  2
      2      4      3      6     4  180.0000771  0.0000000  2
      6      5      3      2     4  180.0000771  0.0000000  2
      4      5      3      6     4  180.0000771  0.0000000  2
     50     52     51     53     4  180.0000771  4.1840000  2
     46     50     48     49     4  180.0000771  4.1840000  2
     41     44     42     43     4  180.0000771  4.6024000  2
     32     34     33     35     4  180.0000771  0.0000000  2
     32     34     33     36     4  180.0000771  0.0000000  2
     36     35     33     32     4  180.0000771  0.0000000  2
     36     34     33     35     4  180.0000771  0.0000000  2
     79     81     80     82     4  180.0000771  4.1840000  2
     75     79     77     78     4  180.0000771  4.6024000  2
     74     77     75     76     4  180.0000771  4.6024000  2
     67     68     66     65     4  180.0000771  0.0000000  2
     69     67     66     65     4  180.0000771  0.0000000  2
     69     68     66     65     4  180.0000771  0.0000000  2
     69     67     66     68     4  180.0000771  0.0000000  2
    113    115    114    116     4  180.0000771  4.1840000  2
    109    113    111    112     4  180.0000771  4.1840000  2
    104    107    105    106     4  180.0000771  4.6024000  2
     97     98     96     95     4  180.0000771  0.0000000  2
     99     97     96     95     4  180.0000771  0.0000000  2
     99     98     96     95     4  180.0000771  0.0000000  2
     99     97     96     98     4  180.0000771  0.0000000  2
    146    149    147    148     4  180.0000771  4.6024000  2
    142    144    143    145     4  180.0000771  4.1840000  2
    137    140    138    139     4  180.0000771  4.6024000  2
    130    131    129    128     4  180.0000771  0.0000000  2
    132    130    129    128     4  180.0000771  0.0000000  2
    132    131    129    128     4  180.0000771  0.0000000  2
    132    130    129    131     4  180.0000771  0.0000000  2
    178    181    179    180     4  180.0000771  4.6024000  2
    174    176    175    177     4  180.0000771  4.1840000  2
    169    172    170    171     4  180.0000771  4.6024000  2
    162    163    161    160     4  180.0000771  0.0000000  2
    164    162    161    160     4  180.0000771  0.0000000  2
    164    163    161    160     4  180.0000771  0.0000000  2
    164    162    161    163     4  180.0000771  0.0000000  2
    209    213    211    212     4  180.0000771  4.1840000  2
    201    204    202    203     4  180.0000771  4.6024000  2
    194    195    193    192     4  180.0000771  0.0000000  2
    196    194    193    192     4  180.0000771  0.0000000  2
    196    195    193    192     4  180.0000771  0.0000000  2
    196    194    193    195     4  180.0000771  0.0000000  2
    241    245    243    244     4  180.0000771  4.1840000  2
    233    236    234    235     4  180.0000771  4.6024000  2
    226    227    225    224     4  180.0000771  0.0000000  2
    228    226    225    224     4  180.0000771  0.0000000  2
    228    227    225    224     4  180.0000771  0.0000000  2
    228    226    225    227     4  180.0000771  0.0000000  2
    270    272    271    273     4  180.0000771  4.1840000  2
    266    270    268    269     4  180.0000771  4.6024000  2
    265    268    266    267     4  180.0000771  4.6024000  2
    258    259    257    256     4  180.0000771  0.0000000  2
    260    258    257    256     4  180.0000771  0.0000000  2
    260    259    257    256     4  180.0000771  0.0000000  2
    260    258    257    259     4  180.0000771  0.0000000  2
    304    306    305    307     4  180.0000771  4.1840000  2
    300    304    302    303     4  180.0000771  4.1840000  2
    295    298    296    297     4  180.0000771  4.6024000  2
    288    289    287    286     4  180.0000771  0.0000000  2
    290    288    287    286     4  180.0000771  0.0000000  2
    290    289    287    286     4  180.0000771  0.0000000  2
    290    288    287    289     4  180.0000771  0.0000000  2
    333    335    334    336     4  180.0000771  4.1840000  2
    329    333    331    332     4  180.0000771  4.6024000  2
    328    331    329    330     4  180.0000771  4.6024000  2
    321    322    320    319     4  180.0000771  0.0000000  2
    323    321    320    319     4  180.0000771  0.0000000  2
    323    322    320    319     4  180.0000771  0.0000000  2
    323    321    320    322     4  180.0000771  0.0000000  2
    367    369    368    370     4  180.0000771  4.1840000  2
    363    367    365    366     4  180.0000771  4.1840000  2
    358    361    359    360     4  180.0000771  4.6024000  2
    351    352    350    349     4  180.0000771  0.0000000  2
    353    351    350    349     4  180.0000771  0.0000000  2
    353    352    350    349     4  180.0000771  0.0000000  2
    353    351    350    352     4  180.0000771  0.0000000  2

[ system ]
; Name
Generic title

[ molecules ]
; Compound       #mols
system1              2
