
  892  0.0000000e+00
  32.2310000  15.2810000 -13.1430000  32.9850000  14.8370000 -13.6470000
  32.4590000  16.2560000 -13.0100000  31.3550000  15.0210000 -13.5740000
  32.1840000  14.6970000 -11.7720000  32.3030000  15.4590000 -11.0010000
  30.7970000  14.0650000 -11.6250000  30.3870000  14.2540000 -10.6330000
  30.1120000  14.4500000 -12.3800000  30.9760000  12.5890000 -11.8190000
  31.3780000  12.3580000 -12.8060000  31.6220000  12.1570000 -11.0540000
  29.6080000  12.0160000 -11.6940000  29.6240000  10.9330000 -11.5730000
  29.0460000  12.4640000 -10.8750000  28.9420000  12.3350000 -12.9450000
  29.5010000  12.2890000 -13.7850000  27.6700000  12.6960000 -13.0500000
  26.9010000  12.7770000 -11.9990000  27.2750000  12.5620000 -11.0860000
  25.9350000  13.0540000 -12.1040000  27.1610000  12.9630000 -14.2550000
  27.7460000  12.8880000 -15.0750000  26.1930000  13.2380000 -14.3410000
  33.4380000  13.8900000 -11.3870000  34.1020000  13.0700000 -12.0660000
  33.7380000  14.1730000 -10.1260000  32.9670000  15.1430000  -9.2430000
  32.0740000  14.6390000  -8.8720000  32.6740000  16.0030000  -9.8460000
  33.9270000  15.5150000  -8.1350000  33.4000000  15.6830000  -7.1960000
  34.5020000  16.4040000  -8.3930000  34.8260000  14.2920000  -8.0560000
  34.2690000  13.6760000  -7.3500000  35.8320000  14.4640000  -7.6720000
  34.8970000  13.6030000  -9.3900000  35.8400000  13.8080000  -9.8980000
  34.6520000  12.1350000  -9.3740000  33.5830000  11.5370000  -9.2550000
  35.7900000  11.4660000  -9.4660000  36.5670000  11.9810000  -9.8540000
  35.8370000  10.0140000  -9.5070000  34.9880000   9.6000000 -10.0520000
  37.1240000   9.6340000 -10.2440000  37.9480000  10.2160000  -9.8320000
  37.3310000   8.5710000 -10.1170000  36.9680000   9.9570000 -11.7730000
  37.0830000  11.1410000 -12.1740000  36.7120000   9.1580000 -12.7350000
  35.2960000   9.4020000  -8.2360000  34.8120000   8.2880000  -8.2600000
  35.4660000  10.2100000  -7.1740000  36.0320000  11.0460000  -7.1850000
  34.9750000   9.7040000  -5.8550000  35.2930000   8.6630000  -5.7930000
  35.4350000  10.4230000  -4.6130000  35.0940000   9.9120000  -3.7130000
  36.5240000  10.4640000  -4.6170000  34.9600000  11.8190000  -4.5120000
  33.7080000  12.0360000  -3.9460000  33.0950000  11.2040000  -3.6010000
  33.2490000  13.3210000  -3.8260000  32.2580000  13.4640000  -3.3960000
  33.9980000  14.4230000  -4.2290000  33.6290000  15.4450000  -4.1430000
  35.2760000  14.1800000  -4.7640000  35.9140000  15.0150000  -5.0520000
  35.7170000  12.8970000  -4.9230000  36.6870000  12.7070000  -5.3830000
  33.4380000   9.5140000  -5.8430000  32.9370000   8.7330000  -5.0200000
  32.7570000  10.2360000  -6.7320000  33.1730000  10.9060000  -7.3630000
  31.2860000  10.0290000  -6.7940000  30.7970000  10.2060000  -5.8360000
  30.7940000  11.0650000  -7.7890000  31.2810000  10.9060000  -8.7510000
  29.7150000  10.9710000  -7.9090000  31.0750000  12.7970000  -7.3250000
  30.8640000   8.6520000  -7.2540000  29.6900000   8.2790000  -7.1160000
  31.7400000   7.9090000  -7.8430000  32.6790000   8.2710000  -7.9300000
  31.4670000   6.5830000  -8.3510000  30.4210000   6.5190000  -8.6510000
  32.3450000   6.2580000  -9.5630000  33.3600000   6.2250000  -9.1660000
  32.0430000   5.2570000  -9.8710000  32.2990000   7.2120000 -10.7870000
  32.6590000   8.1930000 -10.4780000  33.1600000   6.6930000 -11.9170000
  32.8010000   5.7120000 -12.2270000  33.1080000   7.3820000 -12.7600000
  34.1930000   6.6110000 -11.5790000  30.8810000   7.3410000 -11.2800000
  30.2550000   7.7450000 -10.4850000  30.8540000   8.0110000 -12.1390000
  30.5070000   6.3600000 -11.5730000  31.7990000   5.5890000  -7.2460000
  31.4350000   4.4250000  -7.5430000  32.3970000   5.9710000  -6.1280000
  32.7780000   6.8940000  -5.9760000  32.6630000   4.9240000  -5.1120000
  32.8690000   3.9840000  -5.6250000  33.8650000   5.2650000  -4.2040000
  33.7090000   4.6470000  -3.3200000  34.7260000   4.8930000  -4.7590000
  34.1170000   6.6940000  -3.7810000  34.5520000   7.1300000  -4.6800000
  33.0900000   7.0420000  -3.6690000  34.9350000   7.1200000  -2.5610000
  36.1040000   6.7530000  -2.5020000  34.2670000   7.8230000  -1.8150000
  31.4350000   4.5760000  -4.3010000  30.5650000   5.4270000  -4.1200000
  31.3510000   3.3330000  -3.9110000  32.3130000   2.2180000  -4.0850000
  33.3020000   2.5510000  -3.7680000  32.3440000   1.9380000  -5.1380000
  31.7570000   1.0970000  -3.1990000  32.2970000   1.1110000  -2.2520000
  31.9320000   0.1460000  -3.7020000  30.2830000   1.3340000  -2.9950000
  29.9910000   1.0110000  -1.9960000  29.6110000   0.8910000  -3.7300000
  30.2240000   2.8520000  -3.0860000  29.2740000   3.1260000  -3.5460000
  30.3340000   3.5160000  -1.7070000  31.3910000   3.9970000  -1.2930000
  29.2000000   3.6310000  -1.0170000  27.8420000   3.0870000  -1.4030000
  27.9310000   2.0610000  -1.7590000  27.3930000   3.7040000  -2.1820000
  27.0750000   3.1860000  -0.0510000  27.2340000   2.2930000   0.5540000
  26.0070000   3.3250000  -0.2190000  27.6870000   4.4180000   0.6040000
  27.5120000   4.4070000   1.6800000  27.3420000   5.3660000   0.1900000
  29.1600000   4.2380000   0.3210000  29.5760000   5.2450000   0.2850000
  29.9930000   3.3770000   1.2740000  30.0740000   2.1520000   1.1560000
  30.6510000   4.0220000   2.2000000  30.5840000   5.0280000   2.2650000
  31.5120000   3.3200000   3.1560000  31.5310000   2.2430000   2.9880000
  32.9370000   3.8880000   2.9010000  33.1990000   3.6870000   1.8620000
  32.9070000   4.9650000   3.0660000  33.9700000   3.2700000   3.8080000
  34.2540000   1.9320000   3.6220000  33.7180000   1.3640000   2.8610000
  35.2260000   1.3050000   4.4060000  35.4790000   0.2530000   4.2700000
  35.8960000   2.0710000   5.3830000  36.8610000   1.4380000   6.1950000
  36.9700000   0.5060000   5.9910000  35.6210000   3.4220000   5.5730000
  36.1630000   4.0240000   6.3020000  34.6190000   4.0020000   4.7970000
  34.3350000   5.0410000   4.9620000  31.0440000   3.5770000   4.6170000
  31.1460000   4.6870000   5.1170000  30.5200000   2.5760000   5.2350000
  30.4260000   1.6750000   4.7880000  30.0450000   2.7200000   6.6410000
  29.4100000   3.6030000   6.7200000  29.2280000   1.4960000   7.0370000
  29.8230000   0.6180000   6.7840000  28.8520000   1.4460000   8.5170000
  28.2570000   2.3230000   8.7710000  28.2720000   0.5440000   8.7150000
  29.7580000   1.4350000   9.1220000  28.0690000   1.6560000   6.2320000
  27.4630000   0.9290000   6.3950000  31.2230000   2.8380000   7.5840000
  31.1920000   3.6410000   8.4970000  32.2510000   2.0910000   7.3500000
  32.1790000   1.4390000   6.5820000  33.5230000   2.1280000   8.1300000
  34.3620000   1.8210000   7.5050000  33.7050000   3.1320000   8.5140000
  33.3990000   1.1590000   9.3090000  32.4370000   0.4610000   9.5110000
  34.5020000   1.0820000  10.0720000  35.7650000   1.8790000   9.9280000
  35.5770000   2.9350000  10.1210000  36.1810000   1.7620000   8.9270000
  36.6310000   1.2390000  10.9920000  36.6810000   1.9140000  11.8460000
  37.6310000   1.0970000  10.5820000  36.0120000  -0.0820000  11.3700000
  36.2260000  -0.4920000  12.3570000  36.3470000  -0.7830000  10.6050000
  34.5190000   0.1680000  11.2270000  34.0140000  -0.7150000  10.8360000
  33.9160000   0.5390000  12.5960000  33.9300000  -0.2370000  13.5440000
  33.4340000   1.7270000  12.7500000  33.6790000   2.3320000  11.9790000
  32.8170000   2.3370000  13.9560000  33.1670000   1.8110000  14.8440000
  33.1760000   3.7920000  14.0870000  32.9410000   4.3100000  13.1570000
  32.6050000   4.2350000  14.9030000  34.8770000   4.0440000  14.5600000
  31.3260000   1.9310000  13.9830000  30.7700000   1.5550000  12.9560000
  30.7970000   1.9380000  15.2120000  31.3420000   2.2350000  16.0090000
  29.4550000   1.3710000  15.4540000  29.0490000   0.8610000  14.5800000
  29.6690000   0.3540000  16.5510000  29.6100000   0.9260000  17.4770000
  28.8120000  -0.3150000  16.4820000  30.9720000  -0.4760000  16.5410000
  31.8100000   0.2020000  16.3800000  31.0780000  -0.9600000  17.5120000
  30.9590000  -1.5030000  15.4780000  30.2500000  -2.2610000  15.8120000
  30.5660000  -1.0030000  14.5930000  32.2960000  -2.1700000  15.1360000
  32.9800000  -1.5170000  14.5930000  32.8060000  -2.5880000  16.0040000
  31.8360000  -3.3090000  14.2150000  31.3640000  -2.9220000  13.4110000
  32.6390000  -3.8410000  13.9100000  31.2030000  -3.9140000  14.7180000
  28.3600000   2.3340000  15.7350000  27.3290000   1.9560000  16.2990000
  28.5380000   3.5550000  15.3390000  29.4230000   3.7950000  14.9150000
  27.5190000   4.5980000  15.4540000  27.0070000   4.5130000  16.4120000
  27.9880000   6.0450000  15.2770000  28.4950000   6.1480000  14.3180000
  27.1270000   6.7130000  15.3060000  28.6760000   6.3050000  16.0810000
  26.4980000   4.2870000  14.3100000  26.8360000   3.4760000  13.4020000
  25.3650000   4.9240000  14.3240000  25.1540000   5.4800000  15.1400000
  24.3730000   4.8650000  13.2480000  24.8510000   4.3800000  12.3970000
  23.1210000   4.1380000  13.5660000  22.6560000   4.5280000  14.4710000
  22.4110000   4.1930000  12.7410000  23.5290000   2.6820000  13.7900000
  23.9260000   2.2090000  12.8920000  24.2400000   2.5610000  14.6080000
  22.2430000   2.0450000  14.1560000  22.3700000   1.1860000  14.8150000
  21.5380000   2.7450000  14.6040000  21.7020000   1.5860000  12.8940000
  22.3680000   0.8270000  12.9200000  20.8640000   1.6650000  11.8540000
  19.9240000   2.6280000  11.7210000  19.8290000   3.3390000  12.4330000
  19.3210000   2.6320000  10.9110000  20.9700000   0.7170000  10.8680000
  21.6670000  -0.0100000  10.9440000  20.3510000   0.7510000  10.0710000
  24.0310000   6.3070000  12.8960000  23.1000000   6.9140000  13.4310000
  24.7830000   6.9550000  12.0170000  25.5310000   6.3690000  11.6740000
  24.7090000   8.3410000  11.5370000  23.9460000   8.9020000  12.0770000
  26.0420000   9.0820000  11.6230000  26.7520000   8.5410000  10.9970000
  25.9740000  10.5250000  11.1760000  25.2650000  11.0670000  11.8020000
  26.9600000  10.9810000  11.2670000  25.6490000  10.5690000  10.1370000
  26.6520000   9.0200000  13.0510000  26.1420000   9.7690000  13.6560000
  26.4450000   8.0280000  13.4510000  28.1480000   9.2760000  13.0840000
  28.3560000  10.2680000  12.6840000  28.5050000   9.2170000  14.1120000
  28.6590000   8.5270000  12.4790000  24.2040000   8.2780000  10.0790000
  24.8760000   7.6790000   9.2490000  23.0500000   8.8660000   9.8540000
  22.5320000   9.3340000  10.5840000  22.4720000   8.8520000   8.4670000
  22.7050000   7.8990000   7.9930000  20.9540000   9.0490000   8.4960000
  20.7360000   9.9930000   8.9960000  20.3830000   9.0740000   7.1180000
  20.6000000   8.1310000   6.6170000  19.3040000   9.2150000   7.1740000
  20.8280000   9.8940000   6.5550000  20.4780000   7.8430000   9.3080000
  20.6510000   8.1680000  10.3340000  19.4070000   7.8320000   9.1070000
  21.0470000   6.4350000   9.1160000  22.1180000   6.4450000   9.3180000
  20.5550000   5.7470000   9.8030000  20.8740000   6.1090000   8.0900000
  23.0930000   9.9700000   7.6810000  23.0780000  11.1560000   8.0550000
  23.7260000   9.5160000   6.5640000  23.6830000   8.5420000   6.3000000
  24.4420000  10.4550000   5.6700000  24.2700000  11.4800000   6.0000000
  25.9620000  10.1780000   5.6910000  26.1130000   9.1080000   5.5520000
  26.4160000  10.7190000   4.8610000  26.6240000  10.6250000   7.0250000
  26.0400000  10.2150000   7.8490000  27.6340000  10.2170000   7.0580000
  26.6830000  12.0840000   7.1470000  27.2780000  12.4900000   6.3290000
  25.6730000  12.4910000   7.0980000  27.3010000  12.4960000   8.4360000
  26.6080000  12.8080000   9.1010000  28.5690000  12.5150000   8.7930000
  29.5280000  12.1200000   7.9540000  29.2840000  11.8000000   7.0280000
  30.4940000  12.1430000   8.2490000  28.8800000  12.9300000  10.0360000
  28.1460000  13.2170000  10.6680000  29.8460000  12.9530000  10.3310000
  23.9270000  10.1840000   4.2060000  23.3000000   9.1910000   3.9650000
  24.2900000  11.1110000   3.3410000  24.8200000  11.9210000   3.6290000
  23.9800000  10.9500000   1.8980000  23.1560000  10.2500000   1.7610000
  23.5710000  12.3080000   1.3160000  24.1650000  13.0950000   1.7800000
  23.7540000  12.3010000   0.2410000  22.0960000  12.5670000   1.5770000
  21.6570000  13.3590000   2.6560000  22.3710000  13.7900000   3.3570000
  20.3120000  13.5860000   2.8190000  19.9960000  14.2600000   3.6150000
  19.3700000  13.0260000   1.9710000  17.9950000  13.1680000   2.0920000
  17.7380000  13.7090000   2.8430000  19.7950000  12.1890000   0.9090000
  19.0830000  11.6920000   0.2500000  21.1700000  12.0080000   0.7180000
  21.5300000  11.4150000  -0.1230000  25.2300000  10.5030000   1.1710000
  26.3370000  10.9110000   1.5040000  24.9530000   9.7310000   0.1250000
  24.0160000   9.3900000  -0.0380000  25.9970000   9.3440000  -0.8040000
  26.8140000  10.0500000  -0.6560000  26.5430000   7.9440000  -0.6890000
  27.4170000   7.9150000  -1.3400000  26.8450000   7.7220000   0.3340000
  25.6700000   6.8530000  -1.1120000  25.9450000   6.1670000  -2.2850000
  26.8020000   6.4600000  -2.8920000  25.1470000   5.1270000  -2.6830000
  25.4110000   4.5710000  -3.5830000  24.0240000   4.7800000  -1.9630000
  23.3950000   3.9630000  -2.3170000  23.6910000   5.4570000  -0.8000000
  22.8240000   5.1900000  -0.1960000  24.5110000   6.5130000  -0.4120000
  24.2560000   7.1070000   0.4660000  25.3790000   9.5110000  -2.2240000
  24.1470000   9.3720000  -2.3660000  26.2480000   9.7210000  -3.2240000
  27.2370000   9.8270000  -3.0480000  25.7790000   9.7250000  -4.6340000
  24.7980000  10.1960000  -4.7030000  26.7590000  10.5110000  -5.4990000
  26.8610000  11.4950000  -5.0420000  27.7290000  10.0140000  -5.5080000
  26.2480000  10.6660000  -6.9440000  26.9140000  10.0440000  -7.9870000
  27.8030000   9.4480000  -7.7820000  26.4510000  10.1780000  -9.2950000
  26.9250000   9.6650000 -10.1320000  25.2940000  10.9250000  -9.5010000
  24.8390000  11.0850000 -10.7930000  25.3920000  10.6450000 -11.4430000
  24.5870000  11.6030000  -8.5180000  23.6870000  12.1980000  -8.6770000
  25.1250000  11.4750000  -7.2260000  24.6740000  12.0130000  -6.3920000
  25.7860000   8.3220000  -5.1240000  26.8180000   7.6210000  -5.1320000
  24.6180000   7.8310000  -5.5500000  23.8070000   8.4320000  -5.5190000
  24.4730000   6.5110000  -6.1260000  25.2280000   5.8320000  -5.7300000
  23.0990000   5.9730000  -5.7640000  23.0720000   5.9060000  -4.6760000
  22.2900000   6.6180000  -6.1080000  22.8950000   4.6110000  -6.3300000
  23.5370000   4.2040000  -7.3130000  21.9660000   3.9030000  -5.8000000
  21.7850000   2.9710000  -6.1460000  21.4190000   4.2800000  -5.0390000
  24.5330000   6.7300000  -7.6570000  23.6050000   7.1470000  -8.3380000
  25.6900000   6.4990000  -8.2440000  26.4870000   6.3250000  -7.6480000
  25.9370000   6.7710000  -9.7100000  25.5160000   7.7650000  -9.8620000
  27.4380000   6.8460000  -9.9030000  27.8730000   5.8560000  -9.7620000
  27.6580000   7.1990000 -10.9100000  27.8640000   7.5360000  -9.1750000
  25.1080000   5.8830000 -10.6650000  24.9720000   6.3150000 -11.8160000
  24.6720000   4.7390000 -10.2260000  25.0330000   4.4440000  -9.3300000
  23.8440000   3.8430000 -10.9440000  24.1910000   3.7760000 -11.9750000
  23.8730000   2.4690000 -10.3380000  24.8590000   2.0090000 -10.4090000
  23.5480000   2.4710000  -9.2980000  22.8970000   1.6880000 -11.1640000
  21.8830000   1.9330000 -10.8480000  23.0230000   1.9520000 -12.2140000
  23.1340000   0.2200000 -10.9870000  24.0280000  -0.1650000 -11.4770000
  23.1060000  -0.1310000  -9.9550000  21.8830000  -0.2820000 -11.7340000
  20.9960000   0.3200000 -11.5390000  22.0320000  -0.3700000 -12.8100000
  21.6990000  -1.6530000 -11.1400000  21.5600000  -1.5720000 -10.1430000
  20.8920000  -2.0950000 -11.5570000  22.5210000  -2.2120000 -11.3210000
  22.4580000   4.4140000 -11.0530000  21.7760000   4.4190000 -12.1130000
  21.9310000   5.0740000 -10.0380000  22.5090000   5.1900000  -9.2180000
  20.5760000   5.7010000 -10.0430000  19.8790000   5.1770000 -10.6960000
  20.0540000   5.6250000  -8.6120000  20.7370000   6.1530000  -7.9470000
  19.0680000   6.0860000  -8.5600000  19.9840000   4.5810000  -8.3050000
  20.6060000   7.1780000 -10.4320000  19.5950000   7.7680000 -10.8200000
  21.7520000   7.8480000 -10.3730000  22.5460000   7.2760000 -10.1240000
  21.9700000   9.2490000 -10.6180000  23.0450000   9.4260000 -10.5990000
  21.5820000   9.4760000 -11.6110000  21.2920000  10.1750000  -9.5910000
  20.9470000  11.3160000  -9.9040000  21.2010000   9.7230000  -8.3700000
  21.7340000   8.8930000  -8.1530000  20.5890000  10.4580000  -7.2710000
  20.3440000  11.4830000  -7.5490000  19.2330000   9.6820000  -6.9320000
  19.5490000   8.6660000  -6.6960000  18.8870000  10.1740000  -6.0230000
  18.1260000   9.6390000  -7.9240000  18.5770000   9.2320000  -8.8290000
  16.8970000   8.8570000  -7.5840000  16.4450000   9.2640000  -6.6790000
  16.1850000   8.9230000  -8.4060000  17.1640000   7.8130000  -7.4180000
  17.5480000  11.0150000  -8.2320000  18.3310000  11.6560000  -8.6380000
  16.7450000  10.9170000  -8.9620000  17.1550000  11.4580000  -7.3170000
  21.4370000  10.1940000  -6.0090000  22.0770000   9.1680000  -5.9140000
  21.2890000  11.1330000  -5.1210000  20.7600000  11.9600000  -5.3590000
  21.8750000  11.0330000  -3.7340000  22.8310000  10.5090000  -3.7510000
  22.1030000  12.4390000  -3.2170000  21.2370000  13.0580000  -3.4520000
  22.2460000  12.4110000  -2.1370000  23.4860000  13.1490000  -4.0870000
  20.8690000  10.2890000  -2.8500000  19.6390000  10.6510000  -2.9610000
  21.3360000   9.3240000  -2.0860000  22.3320000   9.1590000  -2.0950000
  20.5080000   8.4740000  -1.2590000  19.5190000   8.9230000  -1.1600000
  20.3540000   7.0870000  -1.8580000  21.3490000   6.6660000  -2.0020000
  19.7980000   6.4710000  -1.1510000  19.6230000   7.1190000  -3.1830000
  18.5980000   7.4680000  -3.0580000  20.1670000   7.8130000  -3.8230000
  19.5940000   5.7670000  -3.8530000  20.3950000   4.8670000  -3.6530000
  18.5310000   5.6180000  -4.6780000  18.4050000   4.7520000  -5.1830000
  17.8690000   6.3730000  -4.7850000  21.1840000   8.4020000   0.1180000
  22.3280000   8.7840000   0.2910000  20.4040000   7.9340000   1.1030000
  19.4290000   7.7180000   0.9510000  20.9410000   7.8360000   2.4900000
  21.6920000   8.6240000   2.5420000  19.8490000   8.1160000   3.5680000
  20.3080000   8.0650000   4.5550000  19.2400000   9.4730000   3.3690000
  18.7800000   9.5240000   2.3820000  18.4810000   9.6470000   4.1320000
  20.0150000  10.2350000   3.4480000  18.8070000   7.2160000   3.3480000
  18.1150000   7.3620000   3.9980000  21.5900000   6.4890000   2.6560000
  21.4010000   5.4280000   2.0760000  22.5060000   6.4560000   3.6190000
  22.7430000   7.3400000   4.0450000  23.2070000   5.2750000   4.0600000
  22.5220000   4.4300000   3.9870000  24.4340000   4.9640000   3.2700000
  24.6510000   3.8990000   3.3510000  24.1650000   5.2020000   2.2410000
  25.7100000   5.6820000   3.5550000  26.7810000   5.0950000   4.2240000
  26.6680000   4.0690000   4.5740000  27.9460000   5.7660000   4.4450000
  28.8020000   5.3290000   4.9590000  28.0080000   7.0530000   3.9840000
  28.9390000   7.5680000   4.2220000  27.0140000   7.7100000   3.2710000
  27.0960000   8.7240000   2.8780000  25.8430000   6.9750000   3.0690000
  25.0110000   7.4160000   2.5200000  23.5500000   5.5410000   5.5590000
  23.5560000   6.6400000   6.0340000  23.9230000   4.4770000   6.2050000
  23.9000000   3.5890000   5.7240000  24.3490000   4.4960000   7.6460000
  23.9330000   5.3880000   8.1140000  23.7710000   3.2420000   8.3640000
  24.1850000   2.3210000   7.9540000  24.1900000   3.3820000   9.8220000
  23.7760000   4.3030000  10.2330000  23.8170000   2.5310000  10.3910000
  25.2780000   3.4130000   9.8870000  22.2640000   3.2910000   8.2580000
  21.9730000   3.2890000   7.2080000  21.8360000   2.4210000   8.7550000
  21.8950000   4.1990000   8.7350000  25.8940000   4.5240000   7.7110000
  26.6380000   3.6250000   7.2630000  26.3870000   5.6310000   8.2310000
  25.7430000   6.3830000   8.4320000  27.8140000   5.8600000   8.4580000
  28.4240000   5.2250000   7.8150000  28.1110000   7.3550000   8.1110000
  28.0260000   7.3450000   7.0240000  27.3600000   8.0260000   8.5280000
  29.4870000   7.8350000   8.5030000  30.6140000   7.0950000   8.1740000
  30.5210000   6.1940000   7.5680000  31.8620000   7.5060000   8.6190000
  32.7500000   6.9230000   8.3730000  31.9770000   8.6410000   9.3730000
  33.1980000   9.0640000   9.8030000  33.9140000   8.4910000   9.5200000
  30.8950000   9.3870000   9.7150000  30.9980000  10.3100000  10.2860000
  29.6130000   8.9430000   9.3130000  28.7230000   9.4780000   9.6440000
  28.0850000   5.4550000   9.9380000  27.3560000   5.8800000  10.8410000
  29.1810000   4.7410000  10.1520000  29.7920000   4.5210000   9.3790000
  29.5440000   4.2520000  11.4870000  28.6200000   3.9160000  11.9580000
  30.2060000   3.3990000  11.3370000  30.2190000   5.2420000  12.3890000
  30.4140000   4.8970000  13.5540000  30.5870000   6.3730000  11.9110000
  30.4660000   6.5720000  10.9280000  31.1720000   7.3770000  12.7360000
  30.6260000   8.2810000  12.4670000  30.8950000   7.0740000  13.7460000
  32.6370000   7.6640000  12.6990000  33.0980000   8.6240000  13.3800000
  33.3870000   6.8710000  11.9990000  33.0420000   6.0580000  11.5090000
  34.8130000   7.2120000  11.8680000  34.9310000   8.2850000  12.0190000
  35.7020000   6.4660000  12.8950000  36.7490000   6.7130000  12.7180000
  35.4240000   6.7690000  13.9050000  35.7190000   4.6840000  12.8270000
  35.2670000   6.7630000  10.4810000  34.7290000   5.8080000   9.8600000
  36.3410000   7.3750000  10.0420000  36.6830000   8.1500000  10.5920000
  37.0250000   7.0560000   8.8050000  37.8730000   7.7240000   8.6580000
  37.5380000   5.6250000   8.8660000  36.7200000   4.9230000   9.0270000
  38.0680000   5.3600000   7.9510000  38.5160000   5.5620000  10.0660000
  39.3160000   6.2920000   9.9450000  37.9870000   5.7540000  11.0000000
  39.1070000   4.1660000  10.0980000  38.3320000   3.4010000  10.0440000
  39.8230000   4.0150000   9.2900000  39.8050000   4.0350000  11.3710000
  39.6660000   4.8190000  11.9930000  40.5900000   3.0320000  11.7750000
  40.8230000   1.9640000  11.0240000  40.3990000   1.8910000  10.1100000
  41.4230000   1.2290000  11.3690000  41.1440000   3.1050000  12.9870000
  40.9640000   3.9070000  13.5740000  41.7410000   2.3580000  13.3120000
  36.1870000   7.2270000   7.5200000  36.3320000   6.3910000   6.6400000
  35.4560000   8.2800000   7.5300000  35.4560000   8.8980000   8.3290000
  34.6310000   8.6320000   6.3850000  33.8700000   7.8670000   6.2340000
  33.9410000   9.9810000   6.5420000  34.6910000  10.7590000   6.6850000
  33.3590000  10.1990000   5.6460000  33.2780000   9.9520000   7.4070000
  35.4970000   8.7340000   5.1350000  36.6870000   9.1150000   5.1370000
  34.8890000   8.4280000   4.0190000  34.0160000   7.9330000   4.1370000
  35.4560000   8.5490000   2.6380000  36.4910000   8.8780000   2.7310000
  35.4260000   7.2830000   1.8430000  34.3910000   6.9400000   1.8640000
  35.6950000   7.5630000   0.8240000  36.3300000   6.1770000   2.3140000
  37.3530000   6.5500000   2.2720000  36.0660000   5.9570000   3.3480000
  36.2200000   4.9250000   1.4920000  35.1770000   4.6320000   1.3710000
  36.6740000   5.0650000   0.5110000  36.9720000   3.8300000   2.2490000
  36.6150000   3.8070000   3.2790000  36.7680000   2.8710000   1.7730000
  38.4300000   4.0860000   2.2380000  38.6190000   4.9740000   2.6800000
  38.9050000   3.3510000   2.7430000  38.7610000   4.1070000   1.2840000
  34.7820000   9.7750000   2.0260000  33.9380000  10.5010000   2.6380000
  35.1150000  10.1280000   0.7770000  35.7920000   9.5700000   0.2770000
  34.6590000  11.3720000   0.1670000  34.6500000  12.1590000   0.9210000
  35.5540000  11.7970000  -0.9600000  35.6420000  10.9350000  -1.6210000
  35.0300000  12.6000000  -1.4790000  36.9180000  12.2650000  -0.5680000
  36.7160000  13.1610000   0.0190000  37.2740000  11.4730000   0.0910000
  37.9570000  12.5650000  -1.5880000  37.5730000  13.0750000  -2.4710000
  38.8130000  13.1140000  -1.1960000  38.3930000  11.2350000  -1.9720000
  38.1440000  10.4520000  -1.3840000  39.0920000  10.9930000  -3.1140000
  39.4860000  11.9790000  -3.9420000  39.2620000  12.9390000  -3.7220000
  40.0030000  11.7540000  -4.7800000  39.4460000   9.7340000  -3.4280000
  39.1910000   8.9730000  -2.8140000  39.9650000   9.5550000  -4.2760000
  33.1780000  11.3320000  -0.2590000  32.5990000  12.4010000  -0.1620000
  32.6620000  10.2080000  -0.6180000  33.1890000   9.3470000  -0.5980000
  31.2350000  10.1570000  -1.0750000  30.9340000  11.0750000  -1.5790000
  31.1580000   9.0060000  -2.0720000  31.9390000   9.1000000  -2.8270000
  31.2650000   8.0520000  -1.5550000  29.7990000   9.0330000  -2.7700000
  29.0020000   9.9680000  -2.6530000  29.5330000   8.0070000  -3.5030000
  28.6520000   7.9560000  -3.9950000  30.2060000   7.2590000  -3.5820000
  30.3630000   9.8980000   0.1750000  29.8300000   8.8070000   0.4310000
  30.3290000  10.9260000   0.9290000  30.8430000  11.7310000   0.6010000
  29.6800000  10.9980000   2.2810000  28.7120000  10.4980000   2.2720000
  30.5790000  10.2980000   3.2870000  30.6240000   9.2570000   2.9660000
  31.5750000  10.7380000   3.2310000  30.0970000  10.3420000   4.7700000
  29.3530000  11.2230000   5.1570000  30.5930000   9.3960000   5.5250000
  30.3360000   9.3460000   6.5010000  31.2300000   8.7200000   5.1290000
  29.4410000  12.4810000   2.5130000  30.3740000  13.2530000   2.6400000
  28.1530000  12.8150000   2.5800000  27.4470000  12.0940000   2.6080000
  27.7320000  14.1880000   2.6960000  28.5830000  14.8470000   2.8710000
  27.0540000  14.5950000   1.3450000  26.2240000  13.9010000   1.2130000
  26.6750000  15.6170000   1.3460000  27.9160000  14.4620000   0.1400000
  27.9530000  13.2940000  -0.6020000  27.3150000  12.4610000  -0.3060000
  28.7830000  13.1730000  -1.7040000  28.8090000  12.2830000  -2.3330000
  29.5990000  14.2410000  -1.9900000  30.2600000  14.1270000  -2.8490000
  29.6150000  15.4240000  -1.2500000  30.2690000  16.2560000  -1.5100000
  28.7520000  15.5250000  -0.1380000  28.7570000  16.4260000   0.4760000
  26.6490000  14.3150000   3.8050000  25.8560000  13.4190000   4.0210000
  26.6540000  15.5230000   4.3260000  27.3690000  16.2100000   4.1360000
  25.6700000  15.8100000   5.3990000  25.3710000  14.8580000   5.8380000
  26.1880000  16.7200000   6.5120000  26.5490000  17.6370000   6.0470000
  25.3480000  16.9520000   7.1670000  27.3180000  16.0840000   7.3350000
  26.9360000  15.1940000   7.8350000  28.1310000  15.8030000   6.6650000
  27.8430000  17.0810000   8.3910000  27.8960000  18.1030000   8.0140000
  27.2600000  17.0630000   9.3120000  29.2360000  16.5760000   8.6690000
  29.1410000  15.5340000   8.9750000  29.7860000  16.6290000   7.7290000
  29.9620000  17.3270000   9.7050000  29.4530000  17.2780000  10.5760000
  30.8810000  16.9270000   9.8290000  30.0510000  18.2920000   9.4210000
  24.3600000  16.2910000   4.8760000  23.3860000  16.2260000   5.6490000
  24.3370000  16.7340000   3.6220000  25.1570000  16.7560000   3.0330000
  23.0680000  17.1910000   3.0610000  22.2660000  16.7410000   3.6460000
  22.8800000  18.7110000   3.0600000  21.8780000  18.9680000   2.7160000
  23.0330000  19.1110000   4.0620000  23.8220000  19.2580000   2.1930000
  23.7240000  20.2130000   2.1750000  22.9800000  16.7420000   1.5940000
  24.0150000  16.5670000   0.9160000  21.7470000  16.5650000   1.2330000
  20.9840000  16.5670000   1.8950000  21.4520000  16.2020000  -0.1920000
  22.0500000  15.3120000  -0.3890000  19.9910000  15.8490000  -0.3560000
  19.3800000  16.7330000  -0.1710000  19.8150000  15.4920000  -1.3710000
  19.7230000  15.0680000   0.3550000  21.8890000  17.2640000  -1.2040000
  22.3200000  16.9590000  -2.3380000  21.8350000  18.5300000  -0.8190000
  21.4590000  18.7390000   0.0950000  22.2350000  19.6200000  -1.6520000
  21.7450000  19.6170000  -2.6260000  21.7660000  20.8690000  -0.8650000
  22.5250000  21.0620000  -0.1070000  21.7450000  21.6950000  -1.5760000
  20.3670000  20.7370000  -0.1790000  20.2840000  21.7930000   0.0800000
  19.7350000  20.5240000  -1.0410000  19.9190000  19.8940000   0.9940000
  19.4140000  18.7840000   1.2120000  19.9120000  20.2530000   2.2020000
  23.7400000  19.5540000  -1.8910000  24.1370000  19.7300000  -3.0530000
  24.5370000  19.3310000  -0.8580000  24.1760000  18.9450000   0.0020000
  25.9610000  19.2880000  -1.0820000  26.3180000  20.2930000  -1.3070000
  26.6950000  18.7780000   0.1110000  25.9230000  18.2950000   0.7100000
  27.3420000  18.0180000  -0.3270000  27.4990000  19.6740000   0.9720000
  26.7590000  20.5720000   1.3750000  28.6550000  19.1950000   1.0200000
  26.2800000  18.0710000  -1.9610000  27.1490000  18.1650000  -2.7950000
  25.6050000  16.9560000  -1.7320000  24.9690000  16.9190000  -0.9480000
  25.8220000  15.7530000  -2.4930000  26.8640000  15.4390000  -2.4250000
  24.9410000  14.6440000  -1.9260000  25.1990000  14.4730000  -0.8810000
  23.8940000  14.9390000  -1.9980000  25.0550000  13.0600000  -2.8150000
  25.5910000  15.9980000  -3.9940000  26.3970000  15.6890000  -4.8710000
  24.4050000  16.5650000  -4.2120000  23.7400000  16.7010000  -3.4640000
  23.9750000  16.8600000  -5.5920000  24.1530000  15.9770000  -6.2060000
  22.4810000  17.2370000  -5.6920000  22.2400000  17.9550000  -4.9080000
  22.2900000  17.6860000  -6.6670000  21.6190000  16.0020000  -5.5270000
  21.9060000  15.6060000  -4.5530000  20.6030000  16.3920000  -5.4750000
  21.6840000  14.6730000  -6.7520000  20.8960000  15.4810000  -8.1520000
  21.4690000  16.3650000  -8.4320000  20.8570000  14.7920000  -8.9950000
  19.8830000  15.7770000  -7.8780000  24.8650000  17.9090000  -6.2590000
  25.2540000  17.7140000  -7.4320000  25.2060000  18.9310000  -5.5560000
  24.8780000  18.9910000  -4.6030000  26.1110000  19.9700000  -6.0440000
  25.6690000  20.4890000  -6.8940000  26.3650000  20.9890000  -4.9250000
  25.3930000  21.2750000  -4.5230000  26.9420000  20.4810000  -4.1520000
  27.1060000  22.2250000  -5.3750000  28.1550000  22.1490000  -5.0900000
  27.0300000  22.3250000  -6.4580000  26.4940000  23.4310000  -4.7160000
  27.0760000  24.3360000  -4.8910000  25.4640000  23.5950000  -5.0320000
  26.5030000  23.1430000  -3.3080000  27.2390000  22.6070000  -2.8700000
  25.5360000  23.6350000  -2.5430000  24.5540000  24.3680000  -3.0340000
  24.5240000  24.5700000  -4.0230000  23.8370000  24.7240000  -2.4180000
  25.5330000  23.3480000  -1.2710000  26.2590000  22.7610000  -0.8870000
  24.8040000  23.7140000  -0.6750000  27.4930000  19.4190000  -6.4000000
  28.1050000  19.8940000  -7.3790000  28.0140000  18.4460000  -5.6470000
  27.5190000  18.1120000  -4.8320000  29.3170000  17.8890000  -5.9330000
  30.0510000  18.5770000  -6.3530000  29.8840000  17.3080000  -4.5990000
  29.1650000  16.5860000  -4.2120000  31.2520000  16.6170000  -4.7940000
  31.9720000  17.3380000  -5.1800000  31.6040000  16.2300000  -3.8380000
  31.1470000  15.7950000  -5.5020000  29.9150000  18.3560000  -3.6280000
  30.2620000  18.0150000  -2.8000000  29.3600000  16.8110000  -7.0190000
  30.3230000  16.7530000  -7.8360000  28.3640000  15.9190000  -6.9800000
  27.6330000  16.0160000  -6.2900000  28.3370000  14.7790000  -7.8390000
  29.2400000  14.7300000  -8.4480000  28.2650000  13.5200000  -6.9680000
  27.3260000  13.5130000  -6.4150000  28.3190000  12.6350000  -7.6020000
  29.6640000  13.1610000  -5.8930000  27.2580000  14.6630000  -8.8990000
  27.4840000  13.8310000  -9.7330000  26.2480000  15.4350000  -8.7660000
  26.0740000  16.1590000  -8.0840000  25.2210000  15.1800000  -9.7910000
  25.2690000  14.1050000  -9.9640000  24.2790000  15.4270000  -9.3010000
  25.2860000  15.9050000 -11.1390000  26.2200000  16.5400000 -11.5840000
  24.1410000  15.7350000 -11.7660000  23.5980000  15.1390000 -11.1580000
  23.5320000  16.1790000 -13.0380000  23.7280000  17.2400000 -13.1920000
  23.9500000  15.6090000 -13.8680000  21.9820000  15.9480000 -12.9900000
  21.1390000  16.1120000 -12.0360000  21.5330000  15.4500000 -14.1750000
  21.9830000  15.5430000 -15.0740000  20.0580000  15.1480000 -14.1430000
  19.7410000  14.9030000 -13.1290000  19.3370000  16.3850000 -14.5850000
  19.6370000  16.6370000 -15.6020000  18.2620000  16.2090000 -14.5570000
  19.5870000  17.2100000 -13.9180000  20.0050000  13.7270000 -14.7270000
  20.3520000  13.5310000 -15.9220000  19.6810000  12.7740000 -14.0210000
