integrator              = md
nsteps                  = 0
pbc                     = xyz
cutoff-scheme           = Verlet
verlet-buffer-tolerance = -1
rlist                   = 5.495414
coulombtype             = Cut-off
coulomb-modifier        = None
rcoulomb                = 5.495414
vdwtype                 = Cut-off
vdw-modifier            = None
rvdw                    = 5.495414
epsilon-r               = 1
epsilon-rf              = 1
DispCorr                = no
constraints             = none
continuation            = yes
nstcalcenergy           = 1
nstenergy               = 1
