
 3321  0.0000000e+00
   0.0820000  26.9060000  25.3070000  -0.2560000  26.7850000  26.1970000
  -0.5550000  25.4600000  26.6520000   0.3700000  24.8890000  26.5810000
  -1.2940000  25.0400000  25.9700000  -1.0820000  25.3790000  28.0700000
  -1.0490000  24.3370000  28.3890000  -0.1740000  26.0640000  28.9720000
  -0.9090000  26.6860000  30.0150000  -0.4460000  26.4500000  30.9730000
  -0.7180000  28.1260000  29.8850000  -0.1770000  28.7750000  28.8020000
   0.1710000  28.2210000  27.9430000  -0.1410000  30.0710000  28.9450000
  -0.6860000  30.2960000  30.2010000  -0.9010000  31.5100000  30.8990000
  -0.6390000  32.6690000  30.5320000  -1.4790000  31.2860000  32.1450000
  -1.6740000  32.0860000  32.7130000  -1.8030000  30.0540000  32.6560000
  -2.3520000  30.0490000  33.8810000  -2.5400000  30.8500000  34.4660000
  -2.5850000  29.1450000  34.2670000  -1.6040000  28.9090000  32.0140000
  -1.0450000  29.1040000  30.7990000  -2.4240000  26.0400000  28.3290000
  -3.0500000  26.8040000  27.8680000  -2.3700000  26.2680000  29.8320000
  -3.2300000  26.9280000  29.9460000  -2.6020000  25.0670000  30.5390000
  -2.7290000  25.3040000  31.4610000  -3.5060000  25.1950000  27.9640000
  -4.8810000  25.8440000  27.4460000  -5.7460000  24.7760000  26.8770000
  -4.5100000  27.0170000  26.6120000  -5.5700000  26.3870000  28.7720000
  -5.5950000  25.5820000  29.9500000  -4.6330000  25.0900000  30.0910000
  -6.3740000  24.8290000  29.8360000  -5.8990000  26.4310000  31.1580000
  -5.9410000  25.7910000  32.0390000  -4.8000000  27.3450000  31.4240000
  -5.3070000  28.4940000  32.0880000  -4.7740000  28.6080000  33.0320000
  -4.9380000  29.6890000  31.3360000  -4.3030000  29.7730000  30.1180000
  -3.9840000  28.8840000  29.5940000  -4.1460000  31.0050000  29.7080000
  -4.7060000  31.7750000  30.7200000  -4.8400000  33.1870000  30.8480000
  -4.4650000  34.0800000  30.0690000  -5.4840000  33.5290000  32.0330000
  -5.6340000  34.5010000  32.2120000  -5.9330000  32.6360000  32.9760000
  -6.5440000  33.1550000  34.0520000  -6.7000000  34.1330000  34.2500000
  -6.8660000  32.4980000  34.7490000  -5.7990000  31.3310000  32.8750000
  -5.1890000  30.9730000  31.7310000  -7.0860000  27.3680000  31.0290000
  -7.6170000  27.8850000  30.2290000  -6.8290000  28.3370000  32.1770000
  -7.5510000  29.1000000  31.8860000  -7.1800000  27.8150000  33.4430000
  -7.1680000  28.5480000  34.0620000  -8.3380000  26.6990000  31.1190000
  -9.4670000  26.9900000  30.0110000 -10.4430000  25.8680000  30.0480000
  -8.7920000  27.3350000  28.7320000 -10.1870000  28.2970000  30.5600000
 -10.7640000  28.2960000  31.8720000 -10.0800000  27.8240000  32.5780000
 -11.6980000  27.7350000  31.8410000 -11.0470000  29.7010000  32.3230000
 -11.5710000  29.6690000  33.2780000  -9.8090000  30.4000000  32.6110000
  -9.9890000  31.7890000  32.3710000  -9.6410000  32.3080000  33.2650000
  -9.0480000  32.2110000  31.3390000  -8.3170000  31.4110000  30.4950000
  -8.3350000  30.3360000  30.5940000  -7.6360000  32.0890000  29.6100000
  -7.9210000  33.4160000  29.8980000  -7.4870000  34.6020000  29.2660000
  -6.7590000  34.7210000  28.2760000  -7.9990000  35.7370000  29.8950000
  -7.7390000  36.6280000  29.5230000  -8.8310000  35.7260000  30.9890000
  -9.2110000  36.9220000  31.4590000  -8.9430000  37.8280000  31.1030000
  -9.8150000  36.9170000  32.2680000  -9.2560000  34.6210000  31.5800000
  -8.7660000  33.5100000  30.9840000 -11.7120000  30.5950000  31.3000000
 -11.8090000  30.6700000  30.2170000 -11.4290000  31.9720000  31.8800000
 -11.7100000  32.5630000  31.0090000 -12.2830000  32.2930000  32.9630000
 -12.1730000  33.2300000  33.1390000 -13.0950000  30.3260000  31.1720000
 -13.8030000  30.4930000  29.7430000 -15.0790000  29.7460000  29.7890000
 -12.8030000  30.1830000  28.6900000 -14.1340000  32.0440000  29.6680000
 -14.8070000  32.6900000  30.7540000 -14.4560000  32.3120000  31.7140000
 -15.8750000  32.4940000  30.6550000 -14.5690000  34.1740000  30.6900000
 -15.0380000  34.6750000  31.5370000 -13.1490000  34.4370000  30.8530000
 -12.7800000  35.5660000  30.0760000 -12.2350000  36.2680000  30.7070000
 -11.7800000  35.1410000  29.0840000 -11.4940000  33.8180000  28.8970000
 -11.9890000  33.0690000  29.4970000 -10.6030000  33.4280000  27.9760000
 -10.3930000  32.3660000  27.8520000  -9.9770000  34.4400000  27.1950000
  -9.1080000  34.1060000  26.2410000  -8.6850000  34.8530000  25.7090000
  -8.8900000  33.1350000  26.0680000 -10.2360000  35.7360000  27.3800000
 -11.1290000  36.1180000  28.3230000 -11.3840000  37.3150000  28.5380000
 -14.8870000  34.8180000  29.3560000 -14.9610000  34.4940000  28.3180000
 -14.0610000  36.0920000  29.4310000 -14.1610000  36.4330000  28.4010000
 -14.6350000  37.0460000  30.3000000 -14.1590000  37.8690000  30.1670000
 -16.2760000  35.0690000  29.1940000 -16.8790000  35.2040000  27.7140000
 -18.1660000  35.9430000  27.7740000 -16.8320000  33.8560000  27.1110000
 -15.8040000  36.1020000  26.9600000 -16.1710000  36.9540000  25.8660000
 -17.2490000  37.1140000  25.8800000 -15.8840000  36.4930000  24.9210000
 -15.4710000  38.2840000  26.0020000 -15.8440000  38.8020000  26.8850000
 -14.0650000  38.0430000  26.2880000 -13.2520000  38.4800000  25.2080000
 -12.5020000  39.1640000  25.6050000 -12.4720000  37.3390000  24.7550000
 -12.6320000  36.0250000  25.1180000 -13.3730000  35.7370000  25.8490000
 -11.8120000  35.2190000  24.4960000 -11.0600000  36.0570000  23.6860000
 -10.0230000  35.7590000  22.7840000  -9.5510000  34.6540000  22.4960000
  -9.5260000  36.9100000  22.1780000  -8.7790000  36.8000000  21.5220000
  -9.9800000  38.1800000  22.4080000  -9.3790000  39.1520000  21.7300000
  -8.6180000  39.0540000  21.0740000  -9.7060000  40.0920000  21.9040000
 -10.9560000  38.4720000  23.2430000 -11.4470000  37.3690000  23.8440000
 -15.4730000  39.1580000  24.7640000 -16.1900000  38.4050000  24.4370000
 -14.1510000  38.9370000  24.0570000 -14.5200000  38.2990000  23.2540000
 -13.6210000  40.1270000  23.5070000 -12.9050000  39.8710000  22.9210000
 -16.5560000  39.9500000  24.3090000 -17.3740000  39.4800000  23.0040000
 -18.8030000  39.3030000  23.3870000 -16.6270000  38.3450000  22.3920000
 -17.2700000  40.7060000  22.0010000 -16.0010000  41.2810000  21.6840000
 -15.4390000  40.6380000  21.0060000 -15.4400000  41.4110000  22.6100000
 -16.2040000  42.6170000  21.0400000 -16.5370000  43.3750000  21.7490000
 -14.9380000  43.1130000  20.5480000 -15.1200000  43.7090000  19.2760000
 -14.6410000  44.6870000  19.2320000 -14.3640000  42.9130000  18.3230000
 -13.7100000  41.7300000  18.5750000 -13.7410000  41.2760000  19.5540000
 -13.0830000  41.2610000  17.5320000 -13.3490000  42.1820000  16.5300000
 -12.9270000  42.2140000  15.1820000 -12.1910000  41.4140000  14.5860000
 -13.4330000  43.3250000  14.5140000 -13.1990000  43.4300000  13.5470000
 -14.2310000  44.2870000  15.0790000 -14.6250000  45.2800000  14.2660000
 -14.3870000  45.3980000  13.2910000 -15.2060000  45.9970000  14.6780000
 -14.6180000  44.2780000  16.3460000 -14.1460000  43.2030000  17.0040000
 -17.0820000  42.5330000  19.8120000 -17.4650000  41.7640000  19.1410000
 -16.6220000  43.7350000  18.9960000 -17.0920000  43.4680000  18.0490000
 -17.1500000  44.9640000  19.4540000 -16.9560000  45.6210000  18.7810000
 -18.4460000  42.5650000  20.2080000 -19.4980000  41.5680000  19.5200000
 -20.7160000  41.5570000  20.3790000 -18.8060000  40.2900000  19.2150000
 -19.8310000  42.3110000  18.1540000 -20.4350000  43.6160000  18.1710000
 -19.8730000  44.2710000  18.8370000 -21.4610000  43.5290000  18.5280000
 -20.4420000  44.2060000  16.7860000 -20.9100000  45.1900000  16.8080000
 -19.0820000  44.4600000  16.3510000 -18.9800000  44.2460000  14.9520000
 -18.5350000  45.1270000  14.4900000 -17.9790000  43.1870000  14.7200000
 -17.6090000  42.3390000  15.7270000 -18.0230000  42.4640000  16.7170000
 -16.7330000  41.3450000  15.5080000 -16.4660000  40.6790000  16.3280000
 -16.2120000  41.2030000  14.1880000 -15.3950000  40.1940000  13.9010000
 -15.0460000  40.1270000  12.9550000 -15.1410000  39.5260000  14.6150000
 -16.5340000  42.0470000  13.2040000 -17.4150000  43.0520000  13.4410000
 -17.7360000  43.8610000  12.5580000 -21.0080000  43.3010000  15.7090000
 -21.1950000  42.2370000  15.5610000 -20.3850000  43.8870000  14.4500000
 -20.6140000  43.0770000  13.7580000 -21.0490000  45.0660000  14.0320000
 -20.7280000  45.2710000  13.1510000 -22.4330000  43.3380000  15.7090000
 -23.2660000  41.9990000  15.3850000 -24.6950000  42.3200000  15.6230000
 -22.6420000  40.8520000  16.1050000 -23.0600000  41.8160000  13.8160000
 -23.5260000  42.8300000  12.9090000 -23.1220000  43.7960000  13.2110000
 -24.6150000  42.8650000  12.9450000 -23.0870000  42.5280000  11.5000000
 -23.4720000  43.3090000  10.8450000 -21.6460000  42.6440000  11.3950000
 -21.1850000  41.7900000  10.3590000 -20.6410000  42.3970000   9.6350000
 -20.1550000  40.8890000  10.9010000 -20.0360000  40.6680000  12.2440000
 -20.6680000  41.2000000  12.9400000 -19.1390000  39.7940000  12.7190000
 -19.0650000  39.6340000  13.7950000 -18.3230000  39.1070000  11.7710000
 -17.4400000  38.1890000  12.1800000 -16.8830000  37.7270000  11.4760000
 -17.3450000  37.9760000  13.1630000 -18.4110000  39.3430000  10.4640000
 -19.3100000  40.2410000  10.0040000 -19.3970000  40.5180000   8.8040000
 -23.3620000  41.1260000  10.9920000 -23.5330000  40.1310000  11.4030000
 -22.4000000  41.0310000   9.8150000 -22.4490000  39.9530000   9.6650000
 -22.8810000  41.6890000   8.6610000 -22.3190000  41.4210000   7.9300000
 -24.7170000  40.9690000  10.5870000 -25.4330000  39.5340000  10.7360000
 -26.7970000  39.6650000  10.1590000 -25.2650000  39.0320000  12.1260000
 -24.5890000  38.5890000   9.7780000 -24.6010000  38.8070000   8.3650000
 -24.2000000  39.7910000   8.1230000 -25.6310000  38.7400000   8.0160000
 -23.7800000  37.7590000   7.6800000 -23.8690000  37.8480000   6.5970000
 -22.3750000  37.9880000   7.9490000 -21.6940000  36.7450000   7.9890000
 -20.8470000  36.7490000   7.3030000 -21.0550000  36.5990000   9.3040000
 -21.6180000  37.1300000  10.4360000 -22.5390000  37.6860000  10.3420000
 -21.1020000  36.9440000  11.6530000 -21.6040000  37.3290000  12.5410000
 -19.9120000  36.1700000  11.8060000 -19.3840000  35.8580000  12.8770000
 -19.3800000  35.6990000  10.6250000 -18.4580000  35.1230000  10.7070000
 -19.8850000  35.8800000   9.3620000 -19.3320000  35.4360000   8.3710000
 -24.0120000  36.3510000   8.1870000 -24.3860000  35.8740000   9.0930000
 -22.7380000  35.6530000   7.7360000 -22.8380000  34.7320000   8.3110000
 -22.7610000  35.3520000   6.3620000 -22.0220000  34.7630000   6.1910000
 -25.1930000  35.7800000   7.6380000 -25.8370000  34.4720000   8.3170000
 -27.2260000  34.7820000   8.7240000 -24.8880000  33.9530000   9.3260000
 -25.8570000  33.4400000   7.1090000 -26.1950000  32.0670000   7.3100000
 -27.2560000  31.9800000   7.5430000 -25.6080000  31.6570000   8.1320000
 -25.8990000  31.2920000   6.0560000 -26.3530000  30.3020000   6.0930000
 -26.5680000  31.9590000   4.9490000 -25.6160000  32.3870000   4.0020000
 -25.5910000  31.7590000   3.1120000 -26.0540000  33.6850000   3.4780000
 -26.5770000  34.6500000   4.2990000 -26.6030000  34.4650000   5.3630000
 -27.0070000  35.8290000   3.8420000 -27.4040000  36.5860000   4.5190000
 -26.9240000  36.1160000   2.4510000 -27.2680000  37.1670000   1.9030000
 -26.3820000  35.1060000   1.6920000 -26.3010000  35.3000000   0.6220000
 -25.9330000  33.8920000   2.1340000 -25.4610000  33.0660000   1.3860000
 -24.4270000  31.2430000   5.6750000 -23.4520000  30.9890000   6.0900000
 -24.2860000  32.4380000   4.7430000 -24.0350000  33.1820000   5.4990000
 -23.2090000  32.3030000   3.8400000 -23.0710000  33.1630000   3.4370000
 -24.1910000  30.0500000   4.9540000 -23.5450000  28.7900000   5.7010000
 -23.3300000  27.7350000   4.6770000 -24.3800000  28.4980000   6.8940000
 -22.1200000  29.3110000   6.1920000 -20.9920000  29.3410000   5.2890000
 -21.1050000  30.2040000   4.6330000 -20.9620000  28.4310000   4.6890000
 -19.6980000  29.4700000   6.0620000 -18.8790000  29.6330000   5.3610000
 -19.7520000  30.6910000   6.8480000 -19.5990000  30.3780000   8.2130000
 -18.5890000  30.6290000   8.5370000 -20.4440000  31.2840000   8.9860000
 -21.5170000  31.9050000   8.4150000 -21.7620000  31.7180000   7.3800000
 -22.2790000  32.7490000   9.1200000 -23.1270000  33.2370000   8.6400000
 -21.9230000  32.9700000  10.4780000 -22.6250000  33.8180000  11.2250000
 -22.3390000  33.9460000  12.1850000 -23.4150000  34.3100000  10.8320000
 -20.8860000  32.3550000  11.0420000 -20.1290000  31.5060000  10.3150000
 -19.1570000  30.9130000  10.8000000 -19.4010000  28.3540000   7.0570000
 -19.3190000  27.2700000   7.1360000 -19.9940000  28.9130000   8.3420000
 -21.0060000  28.5380000   8.1910000 -19.4560000  28.3520000   9.5200000
 -20.0280000  28.6170000  10.2440000 -17.9910000  28.2520000   7.2170000
 -17.2360000  26.8980000   6.8080000 -18.2680000  25.9310000   6.3560000
 -16.3140000  26.5310000   7.9170000 -16.3510000  27.3190000   5.5520000
 -15.5170000  28.4980000   5.5850000 -14.5020000  28.2310000   5.8790000
 -15.9290000  29.2050000   6.3050000 -15.4860000  29.1410000   4.2190000
 -15.1400000  28.4130000   3.4850000 -16.8400000  29.4530000   3.8100000
 -16.8040000  30.5150000   2.8790000 -17.0560000  30.0910000   1.9070000
 -17.9160000  31.4150000   3.1610000 -18.9550000  31.7130000   2.3130000
 -18.9690000  31.3350000   1.3010000 -19.8660000  32.4710000   2.8620000
 -19.3910000  32.7040000   4.1450000 -19.9620000  33.4380000   5.2110000
 -21.0490000  34.0090000   5.2490000 -19.1310000  33.4520000   6.3250000
 -19.4430000  33.9620000   7.1270000 -17.9140000  32.8260000   6.4090000
 -17.2530000  32.9810000   7.5610000 -17.5490000  33.5160000   8.3650000
 -16.3520000  32.5300000   7.6280000 -17.3830000  32.1060000   5.4320000
 -18.1700000  32.0890000   4.3360000 -14.7670000  30.4790000   4.1240000
 -14.4170000  31.2730000   4.7840000 -15.3840000  31.0960000   2.8650000
 -15.1150000  32.1370000   3.0460000 -14.7440000  30.6430000   1.6950000
 -15.0460000  31.2020000   0.9750000 -13.3720000  30.2460000   3.9210000
 -12.2750000  31.1290000   4.6940000 -10.9910000  30.9520000   3.9740000
 -12.3590000  30.8070000   6.1370000 -12.7320000  32.6360000   4.4730000
 -12.8740000  33.1610000   3.1510000 -13.2350000  32.3930000   2.4670000
 -11.8930000  33.5060000   2.8240000 -13.8360000  34.3240000   3.1440000
 -14.2860000  34.4010000   2.1540000 -14.9560000  34.0460000   4.0340000
 -15.4890000  35.2690000   4.5290000 -16.5660000  35.2490000   4.3650000
 -15.3610000  35.2860000   5.9810000 -14.5110000  34.5270000   6.7410000
 -13.8680000  33.7890000   6.2850000 -14.5820000  34.8010000   8.0180000
 -15.5460000  35.7950000   8.1080000 -16.0410000  36.4940000   9.2410000
 -15.7170000  36.3600000  10.4260000 -17.0110000  37.4250000   8.8870000
 -17.4170000  37.9740000   9.6170000 -17.4660000  37.6390000   7.6060000
 -18.4490000  38.5460000   7.4680000 -18.8950000  39.0760000   8.2030000
 -18.7920000  38.7000000   6.5310000 -17.0020000  37.0000000   6.5370000
 -16.0490000  36.0990000   6.8620000 -13.3270000  35.6370000   3.6900000
 -12.5800000  35.9860000   4.4030000 -14.6350000  36.3790000   3.9230000
 -14.2480000  37.2440000   4.4610000 -15.2360000  36.8050000   2.7170000
 -15.9480000  37.4040000   2.9540000 -12.5050000  36.3210000   2.7600000
 -11.8990000  37.7540000   3.1580000 -11.0890000  38.2700000   2.0280000
 -11.2890000  37.6120000   4.5070000 -13.1850000  38.6730000   3.3040000
 -13.0800000  39.9590000   3.8900000 -12.3560000  40.5480000   3.3270000
 -12.7430000  39.8580000   4.9220000 -14.4120000  40.6630000   3.8710000
 -14.8050000  40.7480000   2.8580000 -15.4280000  39.9130000   4.5950000
 -15.9820000  40.7240000   5.6160000 -17.0450000  40.5280000   5.7550000
 -15.3830000  40.2920000   6.8780000 -14.4750000  39.2690000   7.0190000
 -14.1100000  38.7350000   6.1540000 -14.1370000  39.0430000   8.2600000
 -14.8570000  39.9790000   8.9900000 -14.9060000  40.2030000  10.3900000
 -14.3190000  39.5840000  11.2920000 -15.7480000  41.2590000  10.7090000
 -15.8430000  41.5020000  11.6740000 -16.4610000  41.9960000   9.8000000
 -17.2100000  42.9720000  10.3130000 -17.3120000  43.2110000  11.2890000
 -17.7490000  43.5190000   9.6570000 -16.4390000  41.7900000   8.4870000
 -15.6200000  40.7730000   8.1540000 -14.3190000  42.0000000   4.5690000
 -13.5750000  42.5070000   5.1840000 -15.6900000  42.1650000   5.1950000
 -15.4870000  42.9850000   5.8840000 -16.6350000  42.5810000   4.2360000
 -17.4300000  42.8270000   4.7140000 -13.9190000  43.0060000   3.6510000
 -12.6600000  43.9310000   4.0090000 -12.4710000  44.8970000   2.8880000
 -11.5330000  43.0430000   4.4160000 -13.1640000  44.6950000   5.3160000
 -14.5080000  45.1970000   5.3740000 -15.2160000  44.4390000   5.0400000
 -14.5600000  46.0590000   4.7100000 -14.8650000  45.6270000   6.7720000
 -15.8740000  46.0390000   6.7690000 -14.9400000  44.4910000   7.6630000
 -14.8570000  44.9660000   8.9920000 -15.8420000  44.8830000   9.4510000
 -14.0250000  44.0520000   9.7870000 -13.1570000  43.1740000   9.2010000
 -13.0910000  43.1210000   8.1240000 -12.3770000  42.3690000   9.9420000
 -11.6880000  41.6840000   9.4480000 -12.4960000  42.4650000  11.3530000
 -11.7320000  41.7100000  12.1390000 -11.8460000  41.8070000  13.1380000
 -11.0660000  41.0670000  11.7360000 -13.3580000  43.3040000  11.9340000
 -14.1350000  44.1100000  11.1700000 -14.9510000  44.9050000  11.6660000
 -13.8480000  46.4930000   7.4750000 -12.7730000  46.6700000   7.4610000
 -14.3320000  46.4070000   8.9230000 -13.4380000  46.7900000   9.4150000
 -15.4170000  47.2700000   9.1820000 -15.5370000  47.2920000  10.1340000
 -13.8980000  47.8140000   6.9550000 -12.7490000  48.8670000   7.3390000
 -12.2580000  49.5650000   6.1320000 -11.7820000  48.1460000   8.2050000
 -13.5320000  49.9240000   8.2240000 -12.8500000  50.6790000   9.2210000
 -13.0760000  51.7420000   9.1380000 -11.7810000  50.5240000   9.0780000
 -13.2420000  50.1950000  10.5910000 -14.3250000  50.2130000  10.7130000
 -12.8840000  48.8090000  10.7510000 -12.8470000  48.5340000  12.1320000
 -13.8060000  48.2240000  12.5470000 -11.9820000  47.3680000  12.3880000
 -11.3450000  46.7250000  11.3500000 -11.3690000  47.1790000  10.3700000
 -10.6560000  45.5910000  11.5160000 -10.2130000  45.0740000  10.6640000
 -10.5550000  45.0040000  12.8210000 -10.0330000  43.9250000  13.0870000
 -11.1690000  45.7190000  13.8290000 -11.0800000  45.3100000  14.8350000
 -11.8690000  46.8940000  13.6990000 -12.3390000  47.4700000  14.6710000
 -12.4900000  50.8650000  11.7260000 -11.6090000  51.4830000  11.8980000
 -12.6440000  49.8610000  12.8770000 -11.7720000  50.1480000  13.4640000
 -13.8170000  50.1000000  13.6290000 -13.7530000  49.5680000  14.4250000
 -13.2020000  52.0750000  11.9870000 -12.4580000  53.3430000  12.6250000
 -13.0260000  54.5460000  11.9840000 -11.0000000  53.0980000  12.5580000
 -12.9450000  53.3350000  14.1420000 -12.4030000  52.3980000  15.0920000
 -11.3350000  52.6010000  15.1650000 -12.5550000  51.3660000  14.7770000
 -13.0410000  52.6040000  16.4440000 -12.8880000  53.6480000  16.7180000
 -14.4830000  52.4640000  16.3370000 -14.9160000  51.3130000  17.0480000
 -15.5830000  51.5570000  17.8750000 -15.7770000  50.5370000  16.1470000
 -16.4080000  50.9940000  15.0150000 -16.2720000  52.0160000  14.6940000
 -17.0950000  50.0740000  14.3840000 -16.9120000  48.9350000  15.1530000
 -17.3840000  47.6180000  15.0160000 -18.1730000  47.2130000  14.0170000
 -18.4800000  46.2520000  13.9740000 -18.4630000  47.8680000  13.3050000
 -17.0170000  46.7200000  15.9540000 -16.2360000  47.1270000  16.9600000
 -15.9320000  46.4270000  17.7240000 -15.7320000  48.3360000  17.1980000
 -16.1090000  49.2050000  16.2450000 -12.6110000  51.6480000  17.5440000
 -11.7040000  51.2570000  18.0050000 -13.6630000  50.5460000  17.4760000
 -13.1090000  49.8730000  16.8220000 -13.8540000  49.9280000  18.7360000
 -14.3490000  49.1210000  18.5800000 -12.6590000  52.3260000  18.7850000
 -11.2930000  52.8210000  19.4620000 -11.6320000  53.8750000  20.4490000
 -10.3390000  53.1210000  18.3580000 -10.7830000  51.5500000  20.2650000
 -11.4160000  51.1780000  21.4870000 -12.4970000  51.1460000  21.3550000
 -11.1660000  51.9130000  22.2520000 -10.9320000  49.8270000  21.9240000
 -11.4440000  49.5210000  22.8360000 -11.3180000  48.8350000  20.9400000
 -10.3430000  47.8060000  20.9000000 -10.8430000  46.8540000  21.0750000
  -9.8660000  47.6980000  19.5280000 -10.1260000  48.5630000  18.4990000
 -10.7820000  49.4100000  18.6370000  -9.5100000  48.2410000  17.3920000
  -8.8130000  47.0820000  17.7150000  -7.9450000  46.2870000  16.9280000
  -7.5910000  46.4570000  15.7490000  -7.4590000  45.2030000  17.6450000
  -6.8400000  44.5770000  17.1710000  -7.7590000  44.9230000  18.9480000
  -7.1850000  43.8190000  19.4520000  -6.5720000  43.1780000  18.9690000
  -7.4050000  43.5940000  20.4120000  -8.5580000  45.6660000  19.7000000
  -9.0420000  46.7230000  19.0220000  -9.4250000  49.6880000  22.0120000
  -8.5200000  50.1880000  21.6670000  -9.2430000  48.1770000  21.9050000
  -8.1750000  48.1700000  21.6860000  -9.4750000  47.5200000  23.1360000
  -9.1530000  46.6210000  23.0390000  -8.9690000  50.2060000  23.2570000
  -7.4660000  50.7580000  23.4000000  -7.2390000  50.9560000  24.8530000
  -7.2650000  51.8840000  22.4710000  -6.5510000  49.5530000  22.8960000
  -6.1390000  48.5040000  23.7950000  -6.9930000  47.9260000  24.1480000
  -5.6380000  48.9670000  24.6450000  -5.1750000  47.5840000  23.0940000
  -4.9340000  46.7190000  23.7110000  -5.8490000  47.0290000  21.9380000
  -4.9420000  46.9110000  20.8570000  -4.9690000  45.9290000  20.3850000
  -5.4020000  47.8010000  19.7920000  -6.2070000  48.9060000  19.9070000
  -6.5480000  49.2330000  20.8780000  -6.4370000  49.5110000  18.7650000
  -5.7450000  48.7490000  17.8400000  -5.5960000  48.8610000  16.4540000
  -6.1670000  49.8240000  15.7250000  -6.0230000  49.8540000  14.7260000
  -6.7430000  50.5220000  16.1730000  -4.8330000  47.9380000  15.8270000
  -4.2660000  46.9760000  16.5610000  -3.6490000  46.2290000  16.0840000
  -4.3350000  46.7650000  17.8710000  -5.1010000  47.6950000  18.4580000
  -3.9480000  48.2600000  22.5010000  -3.6680000  49.2750000  22.2180000
  -3.5620000  47.2990000  21.3890000  -2.8400000  47.9230000  20.8630000
  -2.9140000  46.1440000  21.8830000  -2.5510000  45.6800000  21.1250000
  -2.9030000  48.4450000  23.4520000  -1.9510000  49.7340000  23.3380000
  -1.0270000  49.7220000  24.5000000  -2.8170000  50.9140000  23.0890000
  -1.0760000  49.4580000  22.0430000  -0.1290000  48.3900000  22.0590000
  -0.5730000  47.5170000  22.5360000   0.7460000  48.7080000  22.6260000
   0.2920000  48.0290000  20.6620000   0.8870000  47.1170000  20.7060000
  -0.8640000  47.6720000  19.8520000  -0.6000000  47.9920000  18.4950000
  -0.8740000  47.1300000  17.8860000  -1.5460000  49.0260000  18.0760000
  -2.3620000  49.6450000  18.9790000  -2.3490000  49.3390000  20.0150000
  -3.1850000  50.6320000  18.6040000  -3.8210000  51.1130000  19.3470000
  -3.1850000  50.9950000  17.2360000  -3.9900000  51.9670000  16.8050000
  -3.9620000  52.1980000  15.8220000  -4.6010000  52.4460000  17.4510000
  -2.4010000  50.3870000  16.3430000  -1.5740000  49.3920000  16.7390000
  -0.8370000  48.7930000  15.9450000   0.9370000  49.1330000  19.8580000
   0.9300000  50.2220000  19.8040000   0.8240000  48.5560000  18.4570000
   1.1530000  49.4070000  17.8610000   1.7250000  47.4860000  18.2850000
   1.7250000  47.2660000  17.3500000   2.2770000  49.3260000  20.2610000
   2.9160000  50.7950000  20.2140000   4.2110000  50.7300000  20.9350000
   1.8850000  51.7700000  20.6500000   3.2060000  51.0170000  18.6650000
   4.1320000  50.1730000  17.9800000   3.9580000  49.1400000  18.2820000
   5.1490000  50.4620000  18.2460000   3.9570000  50.2900000  16.4770000
   4.5600000  49.5100000  16.0130000   2.5860000  49.9640000  16.1010000
   2.2340000  50.6830000  14.9280000   1.7900000  49.9660000  14.2380000
   1.1350000  51.5870000  15.2400000   0.5570000  51.8180000  16.4620000
   0.8550000  51.2550000  17.3340000  -0.3520000  52.7570000  16.4270000
  -0.3820000  53.1540000  15.0980000  -1.1490000  54.1590000  14.4570000
  -1.9870000  54.9170000  14.9500000  -0.8580000  54.2380000  13.1010000
  -1.3430000  54.9260000  12.5610000   0.0470000  53.4400000  12.4430000
   0.1840000  53.6570000  11.1260000  -0.3140000  54.3350000  10.5670000
   0.8420000  53.0660000  10.6380000   0.7660000  52.4970000  13.0300000
   0.5090000  52.4190000  14.3490000   4.1670000  51.6610000  15.8630000
   4.1060000  52.7010000  16.1830000   3.4590000  51.4990000  14.5220000
   3.4600000  52.5520000  14.2410000   4.1800000  50.7600000  13.5690000
   3.7410000  50.8870000  12.7250000   5.5460000  51.9910000  15.7200000
   6.0180000  53.5270000  15.8380000   7.4920000  53.5930000  15.6770000
   5.3900000  54.0910000  17.0450000   5.3890000  54.2060000  14.5490000
   5.8820000  53.8570000  13.2510000   5.6200000  52.8320000  12.9900000
   6.9670000  53.9620000  13.2660000   5.3120000  54.7860000  12.2260000
   5.6410000  54.5250000  11.2200000   3.8740000  54.6020000  12.1970000
   3.2430000  55.8470000  11.9650000   2.5380000  55.7790000  11.1370000
   2.3960000  56.1350000  13.1160000   2.4630000  55.5580000  14.3620000
   3.2230000  54.8260000  14.5940000   1.5360000  55.9880000  15.1780000
   0.8200000  56.9050000  14.4250000  -0.3080000  57.6880000  14.7660000
  -0.9310000  57.7160000  15.8340000  -0.7060000  58.4990000  13.7080000
  -1.4970000  59.0940000  13.8530000  -0.0990000  58.5420000  12.4730000
  -0.6370000  59.3780000  11.5710000  -1.4460000  59.9700000  11.6970000
  -0.1980000  59.4040000  10.6620000   0.9550000  57.8140000  12.1430000
   1.3540000  57.0210000  13.1560000   5.4790000  56.2600000  12.5480000
   5.6630000  56.8690000  13.4330000   4.3540000  56.8740000  11.7370000
   4.3600000  57.8910000  12.1300000   4.6870000  56.8990000  10.3610000
   4.0240000  57.4370000   9.9220000   6.7570000  56.7510000  12.1650000
   7.3870000  58.0160000  12.9330000   8.6600000  58.3840000  12.2550000
   7.3790000  57.7490000  14.3880000   6.3210000  59.1670000  12.7000000
   6.0900000  59.6920000  11.3950000   5.7180000  58.9350000  10.7050000
   7.0390000  60.0840000  11.0280000   5.0970000  60.8090000  11.4820000
   4.9170000  61.2740000  10.5130000   3.8060000  60.2770000  11.8750000
   3.0990000  61.2630000  12.6050000   2.1650000  61.5140000  12.1020000
   2.6450000  60.6850000  13.8760000   3.3070000  59.6480000  14.4880000
   4.1800000  59.2320000  14.0060000   2.9420000  59.1690000  15.6830000
   3.5260000  58.3940000  16.1800000   1.8210000  59.7450000  16.3640000
   1.4400000  59.4720000  17.5070000   1.1920000  60.7490000  15.6740000
   0.3210000  61.1910000  16.1590000   1.5370000  61.2520000  14.4510000
   0.9020000  62.1400000  13.9150000   5.4010000  61.8020000  12.5820000
   5.9840000  61.8580000  13.5010000   4.0470000  62.4560000  12.8010000
   4.2550000  62.9290000  13.7610000   3.7790000  63.4490000  11.8360000
   3.0150000  63.9420000  12.1450000   6.3910000  62.7220000  12.1590000
   7.2840000  63.4920000  13.2500000   8.2260000  64.3320000  12.4770000
   7.8160000  62.5340000  14.2590000   6.2180000  64.4250000  13.9620000
   5.4330000  65.3230000  13.1860000   4.9490000  64.8110000  12.3550000
   6.0960000  66.0970000  12.7990000   4.3840000  65.9590000  14.0520000
   3.8860000  66.7710000  13.5220000   3.3210000  65.0150000  14.3530000
   2.7300000  65.3680000  15.5910000   1.6730000  65.5260000  15.3760000
   2.7320000  64.2090000  16.4760000   3.6280000  63.1610000  16.5100000
   4.4020000  63.0660000  15.7630000   3.4210000  62.3450000  17.5120000
   2.3060000  62.8720000  18.1560000   1.6200000  62.4380000  19.3250000
   1.8750000  61.4760000  20.0640000   0.5360000  63.2640000  19.6140000
  -0.0150000  63.0350000  20.4170000   0.1600000  64.3640000  18.8820000
  -0.9280000  65.0170000  19.3080000  -1.5070000  64.7810000  20.1010000
  -1.2120000  65.8210000  18.7670000   0.8000000  64.7890000  17.8080000
   1.8540000  64.0030000  17.5060000   4.8820000  66.3470000  15.4270000
   5.6770000  66.0610000  16.1160000   3.5740000  66.5000000  16.1950000
   4.0160000  66.4780000  17.1910000   2.9350000  67.7360000  15.9930000
   2.2560000  67.8150000  16.6670000   5.6910000  67.5220000  15.3870000
   6.4030000  68.0500000  16.7300000   7.2680000  69.1970000  16.3500000
   7.0030000  66.8960000  17.4370000   5.1740000  68.5800000  17.5950000
   5.2060000  68.5460000  19.0200000   5.8810000  69.3120000  19.4030000
   5.5600000  67.5630000  19.3290000   3.8200000  68.7760000  19.5850000
   3.3410000  69.6390000  19.1220000   2.9350000  67.6560000  19.2750000
   2.1400000  67.3270000  20.4200000   1.1250000  67.1240000  20.0800000
   2.6010000  66.0310000  20.9270000   3.6760000  65.3250000  20.4540000
   4.2430000  65.6840000  19.6080000   3.9060000  64.2270000  21.1210000
   2.9130000  64.1920000  22.0910000   2.6640000  63.2350000  23.1150000
   3.2840000  62.2050000  23.3690000   1.5650000  63.5790000  23.8830000
   1.3120000  62.9660000  24.6320000   0.7940000  64.6900000  23.6930000
  -0.2410000  64.8220000  24.5460000  -0.5020000  64.1880000  25.2870000
  -0.8300000  65.6320000  24.4180000   1.0120000  65.5990000  22.7400000
   2.0850000  65.2880000  21.9810000   3.8170000  68.8330000  21.0970000
   4.4780000  68.5300000  21.9090000   2.3840000  68.4470000  21.4380000
   2.5150000  68.2850000  22.5080000   1.4790000  69.5090000  21.2310000
   0.6490000  69.2540000  21.6400000   4.2230000  70.1070000  21.5710000
   5.3310000  70.2050000  22.7270000   5.9260000  71.5610000  22.6920000
   6.2080000  69.0120000  22.5880000   4.4770000  70.0380000  24.0660000
   3.0970000  70.4200000  24.0860000   2.6220000  70.1810000  23.1340000
   3.0400000  71.4950000  24.2600000   2.3720000  69.6970000  25.1990000
   1.3900000  70.1480000  25.3420000   2.0900000  68.3180000  24.8440000
   2.0240000  67.5360000  26.0300000   1.0270000  67.1050000  26.1240000
   2.8900000  66.3720000  25.8820000   3.8360000  66.1530000  24.9100000
   4.0210000  66.8850000  24.1380000   4.4420000  65.0060000  25.0400000
   3.8640000  64.4390000  26.1680000   4.1080000  63.1980000  26.7940000
   4.8940000  62.3010000  26.4540000   3.3170000  63.0350000  27.9240000
   3.4310000  62.1910000  28.4490000   2.3950000  63.9410000  28.3790000
   1.7390000  63.6100000  29.4960000   1.8420000  62.7600000  30.0320000
   1.0530000  64.2720000  29.8290000   2.1400000  65.0870000  27.7830000
   2.9090000  65.2720000  26.6990000   3.1640000  69.5500000  26.4760000
   4.2190000  69.5080000  26.7460000   2.4080000  68.4400000  27.2030000
   3.1570000  68.2160000  27.9620000   1.2220000  68.8760000  27.8280000
   0.9260000  68.1620000  28.3970000   3.2080000  70.7460000  27.2190000
   4.5150000  71.0480000  28.1000000   4.3430000  72.3910000  28.6880000
   5.7560000  70.7220000  27.3520000   4.3740000  70.0090000  29.2890000
   3.2170000  70.0690000  30.1150000   2.3430000  69.8140000  29.5150000
   3.1010000  71.0760000  30.5150000   3.3350000  69.1010000  31.2480000
   2.6220000  69.4070000  32.0140000   2.8750000  67.7860000  30.8260000
   3.5890000  66.7860000  31.5420000   2.9120000  66.0210000  31.9220000
   4.4250000  66.0470000  30.5980000   5.0710000  66.5500000  29.4990000
   4.9800000  67.5970000  29.2480000   5.8140000  65.6710000  28.8750000
   5.6330000  64.5020000  29.6040000   6.1630000  63.2010000  29.4670000
   7.0390000  62.8530000  28.5230000   7.3820000  61.9040000  28.4770000
   7.3590000  63.5380000  27.8540000   5.7630000  62.2630000  30.3520000
   4.9060000  62.6140000  31.3140000   4.5740000  61.8790000  32.0330000
   4.3500000  63.7990000  31.5570000   4.7600000  64.7130000  30.6550000
   4.7270000  68.8300000  31.7940000   5.7270000  68.8170000  31.3600000
   4.4810000  67.5280000  32.5390000   5.5200000  67.2800000  32.7550000
   3.7780000  67.7040000  33.7510000   3.8370000  66.8760000  34.2320000
   5.3280000  69.9250000  32.5090000   4.8200000  70.3250000  33.9840000
   3.3630000  70.0510000  34.0430000   5.3080000  71.7170000  34.1850000
   5.5890000  69.3670000  35.0150000   6.3200000  68.1980000  34.5780000
   7.3590000  68.3490000  34.8710000   6.2630000  68.0630000  33.4980000
   5.7830000  66.9540000  35.2660000   4.8100000  67.2440000  35.6620000
   5.4880000  65.9110000  34.3110000   6.5960000  65.0490000  34.2180000
   6.2500000  64.0480000  33.9580000   7.3920000  65.4520000  33.0580000
   7.4270000  66.6890000  32.4700000   6.8150000  67.4940000  32.8510000
   8.2420000  66.7600000  31.4550000   8.7750000  65.4860000  31.3620000
   9.7130000  64.9680000  30.4470000  10.2790000  65.5490000  29.5110000
   9.9810000  63.6230000  30.7030000  10.6360000  63.1610000  30.1050000
   9.4180000  62.8840000  31.7150000   9.8130000  61.6040000  31.8030000
  10.4680000  61.1270000  31.2000000   9.3960000  61.0530000  32.5400000
   8.5360000  63.3660000  32.5780000   8.2640000  64.6640000  32.3420000
   6.6650000  66.2780000  36.2960000   7.2510000  66.5520000  37.1730000
   7.3930000  65.1750000  35.5190000   8.3640000  65.6670000  35.5840000
   7.4380000  63.9500000  36.2220000   8.1190000  63.4140000  35.8090000
   5.8790000  65.7730000  37.3550000   6.0120000  66.4490000  38.8020000
   5.1100000  65.7580000  39.7480000   5.8620000  67.9120000  38.5860000
   7.5180000  66.1370000  39.2330000   8.5970000  66.2320000  38.2780000
   8.7060000  67.2820000  38.0050000   8.3740000  65.6460000  37.3860000
   9.8880000  65.7410000  38.8830000  10.7000000  65.9250000  38.1800000
  10.2020000  66.5760000  40.0290000  10.3990000  65.7560000  41.1540000
  11.4640000  65.6460000  41.3600000   9.9060000  66.4470000  42.3360000
   8.8140000  67.2560000  42.4880000   8.1820000  67.4850000  41.6430000
   8.6130000  67.6370000  43.7260000   9.6580000  67.0500000  44.4250000
  10.0060000  67.0490000  45.7790000   9.2920000  67.6630000  46.7270000
   9.5940000  67.6270000  47.6900000   8.4500000  68.1630000  46.4810000
  11.1210000  66.3820000  46.1380000  11.8230000  65.7480000  45.1910000
  12.7210000  65.2090000  45.4540000  11.5870000  65.6630000  43.8950000
  10.4750000  66.3410000  43.5740000   9.8810000  64.3030000  39.3970000
   9.5560000  63.3110000  39.0840000   9.6200000  64.4750000  40.8770000
   8.5320000  64.4080000  40.8790000  10.1590000  63.3960000  41.6120000
   9.8160000  63.4660000  42.5060000  11.1720000  63.7290000  39.2950000
  11.4370000  63.0790000  37.2060000  12.6490000  63.6920000  36.6140000
  10.1170000  63.2800000  36.5580000  11.6820000  61.5290000  37.4280000
  10.9120000  60.7880000  38.3840000   9.8590000  61.0610000  38.3210000
  11.2860000  61.0150000  39.3820000  11.0570000  59.3100000  38.1240000
  10.3790000  58.7390000  38.7580000  10.6100000  59.0310000  36.7700000
  11.4380000  58.0410000  36.1880000  10.8300000  57.2600000  35.7310000
  12.1190000  58.6540000  35.0560000  12.0990000  59.9830000  34.6940000
  11.5410000  60.7080000  35.2690000  12.8040000  60.2310000  33.6220000
  13.3230000  58.9960000  33.2580000  14.1700000  58.6350000  32.1840000
  14.6370000  59.3550000  31.2970000  14.4640000  57.2760000  32.1960000
  15.0690000  56.9270000  31.4800000  13.9870000  56.3730000  33.1160000
  14.3750000  55.0940000  32.9600000  14.9700000  54.7240000  32.2330000
  14.0170000  54.4290000  33.6310000  13.1860000  56.6970000  34.1180000
  12.9030000  58.0130000  34.1310000  12.4880000  58.7880000  38.1540000
  13.5000000  59.1900000  38.0980000  12.3870000  57.5490000  37.2840000
  13.4420000  57.3190000  37.1320000  11.7760000  56.5000000  38.0180000
  11.8780000  55.6980000  37.5000000  12.8910000  58.4480000  39.4790000
  14.3380000  58.8950000  40.0110000  14.3150000  58.8220000  41.4940000
  14.6670000  60.1790000  39.3340000  15.3530000  57.8140000  39.4330000
  15.0300000  56.4230000  39.4170000  13.9540000  56.2760000  39.3230000
  15.3760000  55.9820000  40.3520000  15.7270000  55.7460000  38.2600000
  15.4690000  54.6870000  38.2580000  15.2050000  56.2500000  37.0030000
  16.1920000  56.0860000  35.9890000  15.8180000  55.4040000  35.2260000
  16.3490000  57.3520000  35.2750000  15.7840000  58.5550000  35.6160000
  15.1500000  58.6430000  36.4860000  16.0980000  59.5220000  34.7920000
  16.9230000  58.9230000  33.8520000  17.5710000  59.4820000  32.7200000
  17.5450000  60.6510000  32.3170000  18.3040000  58.5280000  32.0290000
  18.7970000  58.8220000  31.2100000  18.3950000  57.2060000  32.3790000
  19.1260000  56.4450000  31.5560000  19.5980000  56.7410000  30.7130000
  19.1980000  55.4660000  31.7920000  17.8060000  56.6700000  33.4460000
  17.0870000  57.5810000  34.1280000  17.2170000  56.0140000  38.1230000
  17.9260000  56.7980000  38.3890000  17.4610000  55.5750000  36.6820000
  18.4700000  55.9650000  36.5430000  17.4800000  54.1630000  36.5620000
  17.8040000  53.9600000  35.6810000  17.9680000  55.2400000  39.0600000
  19.3110000  55.8440000  39.7220000  19.7390000  54.8500000  40.7450000
  19.0800000  57.2600000  40.1300000  20.3760000  55.7940000  38.5360000
  20.9020000  54.5270000  38.1110000  20.0640000  53.8540000  37.9310000
  21.5370000  54.1150000  38.8950000  21.7090000  54.6660000  36.8400000
  22.0000000  53.6620000  36.5310000  20.8760000  55.1530000  35.7560000
  21.6720000  55.9130000  34.8540000  21.5070000  55.5530000  33.8390000
  21.1420000  57.2820000  34.8270000  20.4090000  57.7680000  35.8730000
  20.2070000  57.1380000  36.7270000  19.9330000  59.0170000  35.8620000
  19.3430000  59.3700000  36.7080000  20.2250000  59.8250000  34.7270000
  19.7670000  61.0810000  34.6750000  19.9910000  61.6290000  33.8570000
  19.2170000  61.4540000  35.4360000  20.9470000  59.3620000  33.6970000
  21.4080000  58.0810000  33.7160000  22.0530000  57.5870000  32.7710000
  22.8630000  55.6450000  36.8640000  23.1650000  56.5340000  37.4180000
  23.1080000  55.8650000  35.3780000  23.7780000  56.7220000  35.4460000
  23.7910000  54.7800000  34.7780000  24.0630000  55.0690000  33.9040000
  23.9930000  55.0950000  37.5260000  25.0150000  56.0730000  38.2800000
  26.0830000  55.2330000  38.8720000  24.2230000  56.9670000  39.1610000
  25.6340000  56.9330000  37.0870000  26.3800000  56.2790000  36.0450000
  25.7650000  55.4900000  35.6120000  27.2810000  55.8410000  36.4750000
  26.7700000  57.2550000  34.9620000  27.3420000  56.7080000  34.2120000
  25.5860000  57.7120000  34.2550000  25.8150000  59.0230000  33.7540000
  25.5750000  59.0780000  32.6920000  24.8420000  59.9440000  34.3620000
  24.2160000  59.6510000  35.5550000  24.4420000  58.7150000  36.0430000
  23.3800000  60.5040000  36.1560000  22.9440000  60.2700000  37.1270000
  23.1050000  61.7730000  35.5540000  22.4180000  62.6680000  36.0460000
  23.7410000  61.9900000  34.3450000  23.5380000  62.9420000  33.8550000
  24.6010000  61.1330000  33.7000000  25.1130000  61.4070000  32.6220000
  27.4300000  58.5490000  35.4000000  27.4360000  59.1830000  36.2870000
  27.2370000  59.4130000  34.1600000  27.5180000  60.3690000  34.6020000
  28.1360000  59.0960000  33.1110000  28.0720000  59.8020000  32.4630000
  28.7980000  58.3980000  35.7730000  29.4420000  59.4060000  36.8490000
  30.1390000  58.6100000  37.8890000  28.3790000  60.3660000  37.2530000
  30.5260000  60.2160000  36.0070000  31.2520000  61.3110000  36.5980000
  31.7490000  60.9440000  37.4960000  30.5730000  62.1200000  36.8650000
  32.2920000  61.8330000  35.6320000  32.9060000  62.5810000  36.1340000
  33.2160000  60.7540000  35.3180000  33.1740000  60.4860000  33.9290000
  34.0430000  60.8770000  33.4010000  33.2900000  59.0360000  33.7280000
  32.9690000  58.1420000  34.7240000  32.5520000  58.5220000  35.6450000
  33.1040000  56.8220000  34.5770000  32.8620000  56.1390000  35.3910000
  33.5980000  56.2900000  33.3400000  33.7960000  55.0980000  33.0970000
  33.8830000  57.2400000  32.3780000  34.2490000  56.8650000  31.4220000
  33.7480000  58.6010000  32.4980000  34.0080000  59.3660000  31.5820000
  31.7560000  62.3260000  34.2900000  31.0080000  62.9980000  33.8700000
  31.8650000  61.0790000  33.4200000  30.8830000  60.6650000  33.6500000
  31.9390000  61.3740000  32.0410000  31.7990000  60.5500000  31.5700000
  32.6120000  63.3520000  33.7880000  32.3340000  64.8880000  34.1800000
  33.3270000  65.7350000  33.4740000  32.2300000  64.9630000  35.6610000
  30.8930000  65.1920000  33.5730000  30.6890000  65.3230000  32.1490000
  30.6570000  64.3360000  31.6880000  31.5050000  65.9000000  31.7140000
  29.3840000  66.0350000  31.8880000  29.1870000  66.1300000  30.8200000
  28.2940000  65.2100000  32.3880000  27.6770000  65.8570000  33.4860000
  26.7060000  66.2550000  33.1900000  27.3410000  64.8290000  34.4870000
  28.0170000  63.6400000  34.5220000  28.8250000  63.4570000  33.8300000
  27.6930000  62.6900000  35.4060000  28.2440000  61.7490000  35.4040000
  26.6260000  62.9650000  36.3090000  26.2490000  62.0480000  37.1960000
  25.4890000  62.2820000  37.8180000  26.7170000  61.1540000  37.2340000
  25.9730000  64.1310000  36.2940000  26.3070000  65.0840000  35.3960000
  25.7200000  66.1780000  35.3540000  29.2620000  67.3630000  32.6240000
  29.7390000  68.3360000  32.7410000  28.6660000  66.9260000  33.9580000
  29.6120000  66.6720000  34.4370000  28.0510000  67.9880000  34.6630000
  27.9060000  67.6820000  35.5610000  28.3520000  68.2190000  31.9290000
  28.9080000  69.4620000  31.0750000  30.2540000  69.7920000  31.6030000
  27.8490000  70.5010000  31.0670000  29.0590000  68.8960000  29.5880000
  27.8960000  68.4740000  28.8350000  27.3180000  69.3320000  28.4920000
  27.2790000  67.8610000  29.4920000  28.3200000  67.6510000  27.6410000
  28.8630000  68.2660000  26.9230000  29.2880000  66.6780000  28.0900000
  29.2980000  65.6010000  27.1800000  30.2070000  65.6810000  26.5840000
  29.4800000  64.3560000  27.9220000  30.5310000  63.4800000  27.7900000
  31.3080000  63.6560000  27.0610000  30.4660000  62.4700000  28.6110000
  29.2990000  62.6820000  29.3300000  28.7100000  61.9140000  30.3660000
  29.1260000  60.8680000  30.8840000  27.5200000  62.4830000  30.8100000
  27.0280000  62.0110000  31.5420000  26.9700000  63.6430000  30.3240000
  25.8180000  64.0260000  30.8890000  25.3110000  63.5480000  31.6200000
  25.4010000  64.8740000  30.5320000  27.5120000  64.3730000  29.3580000
  28.6680000  63.8380000  28.9110000  27.2350000  66.7930000  27.0050000
  26.2530000  66.3950000  27.2620000  28.0550000  65.7100000  26.2880000
  27.2560000  64.9720000  26.2160000  28.4730000  66.0800000  24.9870000
  28.7860000  65.2820000  24.5550000  26.4620000  67.5600000  26.0630000
  24.8700000  67.7330000  26.2500000  24.2510000  67.8090000  24.8900000
  24.6080000  68.8160000  27.2270000  24.4460000  66.3410000  26.8890000
  23.3750000  65.5490000  26.3340000  23.0500000  66.0350000  25.4140000
  22.5310000  65.4650000  27.0180000  23.8910000  64.1650000  26.0090000
  24.5290000  64.2670000  25.1310000  24.7940000  63.7280000  27.0690000
  24.3970000  62.4490000  27.5230000  25.2550000  61.9010000  27.9120000
  23.5570000  62.6550000  28.6980000  23.0380000  63.8550000  29.1200000
  23.2330000  64.7640000  28.5700000  22.3250000  63.7550000  30.2070000
  22.3730000  62.4060000  30.5270000  21.7800000  61.6960000  31.6050000
  21.0740000  62.1320000  32.5170000  22.0810000  60.3410000  31.5500000
  21.7060000  59.7540000  32.2680000  22.8500000  59.7450000  30.5850000
  23.0180000  58.4250000  30.7030000  22.6500000  57.8280000  31.4300000
  23.5910000  57.9790000  30.0010000  23.4120000  60.3930000  29.5740000
  23.1320000  61.7110000  29.6060000  22.8670000  63.0440000  25.8620000
  21.8340000  62.9570000  26.1980000  23.6600000  61.8320000  26.3380000
  22.8800000  61.0710000  26.3670000  24.6650000  61.4420000  25.4200000
  25.0180000  60.6050000  25.7300000  22.2720000  63.0200000  24.5450000
  22.4950000  61.7640000  23.5490000  23.8980000  61.8170000  23.0450000
  21.3730000  61.7730000  22.5750000  22.3430000  60.4460000  24.4350000
  23.1980000  59.3050000  24.1770000  24.2310000  59.5950000  24.3700000
  23.0930000  59.0110000  23.1330000  22.8370000  58.1320000  25.0620000
  23.6190000  57.3820000  24.9470000  22.9000000  58.5110000  26.4640000
  22.0120000  57.6970000  27.2130000  22.5650000  57.1420000  27.9710000
  21.1280000  58.5770000  28.0000000  20.8890000  59.8670000  27.6100000
  21.3270000  60.2490000  26.7000000  20.1110000  60.6760000  28.3470000
  19.9460000  61.7020000  28.0180000  19.5370000  60.1360000  29.5450000
  18.7690000  60.9020000  30.3250000  18.3840000  60.4840000  31.1600000
  18.5890000  61.8640000  30.0750000  19.7470000  58.8720000  29.9240000
  20.5400000  58.0720000  29.1750000  20.7690000  56.9070000  29.5000000
  21.4390000  57.5720000  24.9220000  20.4560000  57.9100000  24.5940000
  21.2980000  56.7780000  26.2180000  20.2250000  56.5910000  26.1870000
  21.9920000  55.5460000  26.1610000  21.7140000  55.0320000  26.9230000
  21.3370000  56.7550000  23.7590000  19.8860000  56.3160000  23.2270000
  19.9930000  55.6450000  21.9010000  19.0100000  57.5040000  23.3780000
  19.4310000  55.2360000  24.3010000  18.0560000  55.0770000  24.6260000
  17.6130000  54.2580000  24.0590000  17.5480000  56.0080000  24.3750000
  17.8920000  54.8060000  26.0960000  18.4370000  53.9170000  26.4130000
  18.4700000  55.8820000  26.8740000  17.6760000  56.1270000  28.0270000
  18.2420000  56.0520000  28.9560000  17.2810000  57.5440000  27.9940000
  17.5020000  58.2970000  26.8670000  17.9150000  57.8080000  25.9970000
  17.1810000  59.5930000  26.7850000  17.3710000  60.1620000  25.8750000
  16.5850000  60.2510000  27.9090000  16.2590000  61.4400000  27.9610000
  16.3820000  59.4410000  29.0130000  15.9230000  59.9130000  29.8820000
  16.6890000  58.1070000  29.1240000  16.4460000  57.4810000  30.1370000
  16.4430000  54.7990000  26.5180000  15.4850000  55.1360000  26.1220000
  16.5190000  55.1210000  28.0030000  15.4740000  55.3870000  28.1620000
  16.8360000  53.9800000  28.7720000  16.6790000  54.2090000  29.6910000
  15.8510000  53.5500000  26.2040000  14.4030000  53.5300000  25.5320000
  14.2980000  52.3880000  24.6010000  14.1740000  54.9100000  25.0290000
  13.4500000  53.2770000  26.7800000  13.5820000  52.0790000  27.5510000
  14.6110000  51.9470000  27.8850000  13.2960000  51.2400000  26.9170000
  12.6740000  52.1250000  28.7520000  12.7220000  51.1720000  29.2790000
  13.1420000  53.1000000  29.7200000  12.0350000  53.6340000  30.4320000
  12.2130000  53.5650000  31.5050000  12.0010000  55.0670000  30.1800000
  12.6320000  55.7310000  29.1570000  13.2170000  55.1930000  28.4250000
  12.4420000  57.0230000  29.1890000  11.6310000  57.2200000  30.2970000
  11.1030000  58.4180000  30.8390000  11.2630000  59.5780000  30.4310000
  10.3310000  58.1690000  31.9760000   9.9130000  58.9510000  32.4380000
  10.1110000  56.9190000  32.5190000   9.3710000  56.8690000  33.6410000
   8.9670000  57.6500000  34.1380000   9.2190000  55.9540000  34.0410000
  10.5920000  55.7940000  32.0070000  11.3420000  56.0190000  30.9130000
  11.2720000  52.5980000  28.4770000  10.7730000  53.2430000  27.7540000
  10.7920000  52.9400000  29.8770000   9.8560000  53.4370000  29.6200000
  10.5160000  51.7890000  30.6600000  10.0630000  52.0900000  31.4510000
  10.5000000  51.6170000  27.8340000   9.2780000  52.0800000  26.9150000
   8.7060000  50.8390000  26.3540000   9.7220000  53.1550000  26.0010000
   8.2780000  52.7200000  27.9760000   7.5990000  51.8720000  28.9150000
   8.2640000  51.1080000  29.3180000   6.7830000  51.3940000  28.3730000
   7.0320000  52.6820000  30.0490000   6.9400000  52.0720000  30.9480000
   7.9980000  53.6940000  30.3970000   7.3370000  54.8170000  30.9420000
   7.7910000  55.0280000  31.9100000   7.6900000  55.9750000  30.1360000
   8.3710000  55.9910000  28.9430000   8.7760000  55.0840000  28.5200000
   8.4570000  57.1870000  28.4230000   7.8110000  58.0050000  29.3390000
   7.5680000  59.3940000  29.3120000   7.8730000  60.2120000  28.4310000
   6.8860000  59.8160000  30.4510000   6.6700000  60.7890000  30.5270000
   6.4840000  58.9990000  31.4750000   5.8370000  59.5830000  32.4850000
   5.6210000  60.5650000  32.5820000   5.5490000  58.9820000  33.2440000
   6.6970000  57.7000000  31.5060000   7.3570000  57.2740000  30.4120000
   5.8040000  53.5030000  29.7420000   5.2760000  53.9210000  28.8840000
   5.8370000  54.5250000  30.8620000   5.0940000  55.2200000  30.4710000
   5.3780000  53.9850000  32.0870000   5.2520000  54.7220000  32.6890000
   4.6380000  52.7070000  29.8050000   3.3380000  53.1520000  28.9740000
   2.2510000  52.1790000  29.2710000   3.7680000  53.3890000  27.5580000
   2.9590000  54.5510000  29.6180000   2.4830000  54.6250000  30.9560000
   3.1960000  54.2090000  31.6670000   1.5500000  54.0640000  31.0080000
   2.2170000  56.0570000  31.3060000   1.9680000  56.1690000  32.3610000
   3.4420000  56.8170000  31.1390000   3.1240000  58.1290000  30.6970000
   3.5570000  58.9140000  31.3160000   3.7800000  58.3300000  29.4040000
   4.3370000  57.2780000  28.7320000   4.1970000  56.2830000  29.1270000
   5.0000000  57.4250000  27.5840000   5.4590000  56.5700000  27.0880000
   5.1300000  58.7140000  27.0050000   5.7370000  58.9700000  25.9660000
   4.5180000  59.7370000  27.7200000   4.5880000  60.7390000  27.2970000
   3.8370000  59.6130000  28.9070000   3.3230000  60.5660000  29.4820000
   1.2500000  56.7650000  30.3760000   0.8770000  56.6470000  29.3590000
   1.6020000  58.2210000  30.6200000   1.0360000  58.7140000  29.8300000
   1.1130000  58.6380000  31.8810000   1.2260000  59.5900000  31.9250000
  -0.0860000  56.4850000  30.7380000  -1.1500000  56.1490000  29.5970000
  -2.1750000  55.3050000  30.2590000  -0.4010000  55.6380000  28.4230000
  -1.7620000  57.5690000  29.2000000  -2.4970000  58.3490000  30.1640000
  -1.9870000  58.3010000  31.1260000  -3.5030000  57.9420000  30.2660000
  -2.5870000  59.7910000  29.7210000  -3.0690000  60.3640000  30.5130000
  -1.2530000  60.3410000  29.6360000  -1.1970000  61.3120000  28.6040000
  -0.7710000  62.2380000  28.9900000  -0.2080000  60.8590000  27.6230000
   0.2730000  59.5800000  27.6660000  -0.0880000  58.8960000  28.4200000
   1.1890000  59.1540000  26.7870000   1.5540000  58.1290000  26.8500000
   1.6370000  60.0770000  25.8080000   2.5470000  59.7010000  24.9140000
   2.8440000  60.3830000  24.2310000   2.9190000  58.7620000  24.9300000
   1.1700000  61.3290000  25.7490000   0.2410000  61.7490000  26.6460000
  -0.2250000  62.9010000  26.6220000  -3.1770000  60.0570000  28.3450000
  -3.3540000  59.5140000  27.4160000  -2.6040000  61.4330000  28.0280000
  -2.8530000  61.4820000  26.9680000  -3.2830000  62.4580000  28.7170000
  -2.9930000  63.2910000  28.3380000  -4.6040000  60.0740000  28.3980000
  -5.4680000  59.5990000  27.1260000  -6.7820000  59.1540000  27.6470000
  -4.6410000  58.6740000  26.3140000  -5.6560000  60.9230000  26.2610000
  -4.5000000  61.6220000  25.8040000  -3.9070000  60.9680000  25.1650000
  -3.9170000  61.8960000  26.6830000  -4.8590000  62.8690000  25.0390000
  -5.5320000  63.5270000  25.5890000  -3.6260000  63.6270000  24.9210000
  -3.3140000  63.8240000  23.5620000  -2.8140000  64.7840000  23.4290000
  -2.2940000  62.8440000  23.1660000  -2.1280000  61.6540000  23.8310000
  -2.7820000  61.3960000  24.6510000  -1.1590000  60.7970000  23.4780000
  -1.0350000  59.8650000  24.0300000  -0.3190000  61.1730000  22.3730000
   0.6810000  60.3800000  21.9730000   1.2420000  60.6890000  21.1920000
   0.8570000  59.5050000  22.4450000  -0.4940000  62.3180000  21.7130000
  -1.4760000  63.1710000  22.0900000  -1.6750000  64.2480000  21.5030000
  -5.3260000  62.6200000  23.6120000  -5.4450000  61.7300000  22.9940000
  -4.6290000  63.7060000  22.8070000  -4.7500000  63.2840000  21.8090000
  -5.3000000  64.9390000  22.8780000  -4.9050000  65.5120000  22.2160000
  -6.7390000  62.6780000  23.4810000  -7.4340000  62.1050000  22.1490000
  -8.8590000  62.4660000  22.2050000  -7.0430000  60.6880000  21.9950000
  -6.7820000  62.9260000  20.9490000  -7.2390000  64.2630000  20.6420000
  -6.9600000  64.9330000  21.4550000  -8.3230000  64.2610000  20.5300000
  -6.6090000  64.7480000  19.3610000  -6.8790000  65.7870000  19.1710000
  -5.1670000  64.7710000  19.5200000  -4.5480000  64.2850000  18.3460000
  -3.7630000  64.9180000  17.9320000  -3.8310000  63.0650000  18.7040000
  -4.1090000  62.2080000  19.7410000  -5.0040000  62.3390000  20.3320000
  -3.2380000  61.2370000  19.8670000  -2.3380000  61.4620000  18.8350000
  -1.1820000  60.7900000  18.4380000  -0.7020000  59.7200000  19.0690000
   0.1410000  59.2730000  18.7360000  -1.1800000  59.3550000  19.8800000
  -0.5210000  61.2580000  17.3590000  -1.0060000  62.3320000  16.7310000
  -0.5010000  62.7220000  15.8600000  -2.0830000  63.0560000  17.0160000
  -2.7080000  62.5650000  18.0950000  -6.8640000  63.8490000  18.1640000
  -7.2320000  62.8370000  17.9980000  -5.6380000  64.0940000  17.2900000
  -5.7510000  63.2240000  16.6430000  -5.7160000  65.2680000  16.5150000
  -5.0040000  65.2280000  15.8720000  -8.1070000  64.1790000  17.5340000
  -8.8530000  63.0900000  16.6140000 -10.2350000  63.5310000  16.3020000
  -8.6360000  61.7610000  17.2460000  -8.0080000  63.1440000  15.2720000
  -7.4910000  64.3840000  14.7950000  -6.9010000  64.8380000  15.5920000
  -8.2990000  65.0590000  14.5120000  -6.6100000  64.1440000  13.6050000
  -6.2950000  65.0920000  13.1690000  -5.3720000  63.5100000  14.0310000
  -5.2220000  62.2640000  13.3740000  -4.4320000  62.3510000  12.6280000
  -4.6820000  61.2950000  14.3410000  -5.3650000  61.0000000  15.4870000
  -6.2990000  61.4990000  15.7010000  -4.8980000  60.0990000  16.3560000
  -5.4690000  59.8790000  17.2580000  -3.6630000  59.4620000  16.0430000
  -3.1630000  58.5390000  16.8620000  -2.2850000  58.1100000  16.6060000
  -3.6560000  58.2870000  17.7070000  -2.9780000  59.7540000  14.9370000
  -3.4630000  60.6690000  14.0650000  -2.8580000  60.9690000  13.0230000
  -7.2360000  63.2190000  12.5740000  -8.1830000  63.0690000  12.0560000
  -6.6190000  61.8650000  12.9060000  -7.4160000  61.5550000  13.5810000
  -6.5600000  60.9760000  11.8080000  -6.3840000  60.1020000  12.1640000
  -6.9140000  63.6600000  11.2700000  -8.0300000  64.4380000  10.4180000
  -7.6850000  65.8860000  10.3880000  -9.3450000  64.0060000  10.9690000
  -7.8670000  63.8430000   8.9500000  -8.6500000  62.7190000   8.5130000
  -8.4450000  62.5460000   7.4570000  -9.7130000  62.9200000   8.6480000
  -8.2750000  61.4870000   9.2990000  -7.1910000  61.4250000   9.3930000
  -8.7510000  61.6480000  10.6670000  -9.6280000  60.5900000  10.9970000
  -9.1120000  59.9040000  11.6690000 -10.7210000  61.1310000  11.8240000
 -11.9300000  61.4460000  11.2680000 -12.0810000  61.3280000  10.2050000
 -12.9390000  61.9010000  12.0200000 -13.8930000  62.1380000  11.5500000
 -12.7020000  62.0480000  13.4170000 -13.6790000  62.4810000  14.2200000
 -13.4720000  62.5720000  15.2040000 -14.5880000  62.7050000  13.8410000
 -11.5200000  61.7620000  13.9660000 -10.5080000  61.3040000  13.1930000
  -9.3940000  61.0340000  13.6660000  -8.8890000  60.1870000   8.7920000
  -9.0390000  59.6570000   7.8510000 -10.1180000  60.0170000   9.6710000
 -10.8250000  60.5230000   9.0140000 -10.4960000  58.6610000   9.8140000
 -11.3780000  58.6540000  10.1940000  -7.9920000  59.1060000   8.9850000
  -7.8310000  58.0100000   7.8250000  -8.2960000  58.6250000   6.5550000
  -8.4670000  56.7580000   8.3160000  -6.2570000  57.7920000   7.7020000
  -5.5390000  58.2470000   6.5370000  -5.5270000  59.3370000   6.5380000
  -6.0310000  57.8900000   5.6320000  -4.1160000  57.7340000   6.5650000
  -3.6140000  58.0450000   5.6490000  -3.3730000  58.3900000   7.6280000
  -2.4530000  57.4770000   8.2040000  -1.4680000  57.9430000   8.2370000
  -2.8070000  57.3060000   9.6300000  -3.8670000  57.9760000  10.1690000
  -4.4330000  58.6660000   9.5610000  -4.2230000  57.7940000  11.4460000
  -5.0750000  58.3430000  11.8460000  -3.4610000  56.8720000  12.2170000
  -3.8010000  56.6260000  13.4880000  -3.2380000  55.9660000  14.0050000
  -4.5960000  57.0920000  13.9020000  -2.4070000  56.2270000  11.7080000
  -2.0480000  56.4340000  10.4200000  -1.0580000  55.8790000   9.9190000
  -3.9610000  56.2500000   6.8500000  -4.5570000  55.4550000   7.2990000
  -2.5350000  56.1810000   7.3870000  -2.5660000  55.1720000   7.7980000
  -1.5700000  56.2400000   6.3600000  -0.7260000  56.0070000   6.7540000
  -4.1530000  55.4660000   5.6690000  -4.9070000  54.0480000   5.7670000
  -5.2670000  53.6080000   4.4070000  -5.9510000  54.1430000   6.8010000
  -3.8030000  53.0620000   6.3490000  -2.5680000  52.8370000   5.6550000
  -2.0460000  53.7720000   5.4510000  -2.8070000  52.3420000   4.7140000
  -1.6770000  51.9420000   6.4720000  -0.7220000  51.7850000   5.9700000
  -1.3300000  52.6140000   7.7100000  -1.1570000  51.6510000   8.7400000
  -0.1650000  51.7160000   9.1870000  -2.0550000  51.9780000   9.8440000
  -3.0010000  52.9690000   9.8760000  -3.2000000  53.5750000   9.0040000
  -3.5920000  53.0750000  11.0360000  -3.0090000  52.0830000  11.8120000
  -3.2100000  51.7430000  13.1760000  -3.9600000  52.2730000  14.0020000
  -2.4130000  50.6690000  13.5560000  -2.4930000  50.3460000  14.4990000
  -1.5380000  50.0080000  12.7360000  -0.9000000  48.9650000  13.2730000
  -0.9860000  48.6210000  14.2190000  -0.2470000  48.4790000  12.6750000
  -1.3170000  50.3360000  11.4770000  -2.0820000  51.3760000  11.0830000
  -2.3240000  50.6640000   6.9630000  -3.3410000  50.3270000   7.1640000
  -1.4240000  50.2810000   8.1260000  -2.0350000  49.4950000   8.5700000
  -0.1970000  49.7360000   7.6980000   0.2330000  49.3690000   8.4740000
  -2.3760000  49.6620000   5.9720000  -3.5810000  48.6060000   5.9930000
  -3.5610000  47.8990000   4.6970000  -4.8050000  49.3250000   6.4280000
  -3.2000000  47.5760000   7.1470000  -2.0310000  46.7480000   7.0330000
  -1.1630000  47.3520000   6.7680000  -2.2090000  46.0070000   6.2540000
  -1.7630000  46.0410000   8.3380000  -0.7650000  45.6030000   8.3170000
  -1.7050000  47.0270000   9.4000000  -2.1060000  46.4290000  10.6180000
  -1.3040000  46.4190000  11.3560000  -3.1280000  47.2750000  11.2520000
  -3.7980000  48.2380000  10.5460000  -3.5990000  48.3290000   9.4880000
  -4.7210000  49.0320000  11.0970000  -5.2360000  49.7890000  10.5060000
  -5.0380000  48.8930000  12.4720000  -5.8640000  49.5640000  13.0940000
  -4.3320000  47.9080000  13.1280000  -4.5580000  47.7790000  14.1860000
  -3.3880000  47.0710000  12.5920000  -2.8320000  46.2060000  13.2560000
  -2.8350000  45.0790000   8.8160000  -3.8980000  44.9050000   8.6510000
  -2.5320000  44.9920000  10.3070000  -3.4530000  44.5090000  10.6330000
  -1.4330000  44.1500000  10.5910000  -1.4250000  44.0090000  11.5410000
  -2.6920000  43.8090000   8.1800000  -4.0010000  42.9910000   7.7120000
  -3.5700000  41.6210000   7.3420000  -4.7550000  43.8090000   6.7330000
  -4.8930000  42.8840000   9.0230000  -4.4920000  42.0400000  10.0960000
  -3.4570000  42.2710000  10.3490000  -4.5700000  40.9910000   9.8110000
  -5.3600000  42.2920000  11.2930000  -4.8320000  41.9770000  12.1930000
  -5.5060000  43.7340000  11.4420000  -6.8770000  44.0640000  11.4440000
  -7.1690000  44.2670000  12.4740000  -7.0600000  45.3440000  10.7750000
  -6.8310000  45.6340000   9.4510000  -6.4350000  44.8890000   8.7770000
  -7.1390000  46.8650000   9.1390000  -7.5860000  47.4170000  10.3300000
  -8.0660000  48.7200000  10.6140000  -8.1790000  49.6760000   9.8510000
  -8.4290000  48.8540000  11.9500000  -8.7930000  49.7370000  12.2460000
  -8.3210000  47.8650000  12.8970000  -8.7020000  48.1970000  14.1390000
  -9.0460000  49.0940000  14.4500000  -8.6180000  47.4790000  14.8440000
  -7.8690000  46.6450000  12.6460000  -7.5280000  46.4930000  11.3510000
  -6.7770000  41.7330000  11.2250000  -7.3160000  40.8120000  11.0040000
  -7.5790000  42.9200000  10.7250000  -7.5290000  42.7290000   9.6530000
  -8.9230000  42.8580000  11.1510000  -9.4030000  43.5310000  10.6630000
  -7.2060000  41.4980000  12.5500000  -7.8160000  40.0770000  12.9570000
  -6.7720000  39.0420000  12.7160000  -9.1410000  39.9660000  12.2940000
  -8.0190000  40.2010000  14.5330000  -6.8730000  40.3030000  15.4010000
  -6.3190000  41.2060000  15.1470000  -6.2310000  39.4330000  15.2650000
  -7.3070000  40.3770000  16.8410000  -6.4410000  40.2640000  17.4930000
  -7.8140000  41.7050000  17.1360000  -9.0740000  41.6120000  17.7800000
  -9.0350000  41.6670000  18.8680000  -9.8480000  42.7980000  17.4180000
  -9.9150000  43.4260000  16.1980000  -9.4170000  42.9970000  15.3410000
 -10.6650000  44.5020000  16.1950000 -11.1330000  44.5810000  17.4990000
 -11.9910000  45.4890000  18.1390000 -12.5710000  46.5240000  17.5180000
 -13.1800000  47.1450000  18.0320000 -12.3990000  46.6840000  16.5360000
 -12.2480000  45.2910000  19.4530000 -11.6940000  44.2310000  20.0610000
 -11.8850000  44.0510000  21.1090000 -10.8890000  43.2930000  19.5570000
 -10.6420000  43.5330000  18.2600000  -8.4360000  39.4400000  17.2020000
  -8.3940000  39.0120000  16.2000000  -9.6910000  40.2870000  17.3390000
 -10.1430000  40.0890000  16.3670000 -10.5570000  39.8360000  18.3620000
 -11.3810000  40.3190000  18.2660000  -8.2430000  38.0630000  17.4770000
  -7.3510000  37.6320000  18.7310000  -7.2010000  36.1590000  18.7450000
  -7.9190000  38.3180000  19.9180000  -5.9280000  38.2370000  18.3590000
  -5.1810000  39.0000000  19.3060000  -5.0040000  38.4060000  20.2030000
  -5.7410000  39.8970000  19.5690000  -3.8620000  39.3990000  18.7100000
  -3.2300000  38.5230000  18.5650000  -4.0900000  39.9030000  17.3810000
  -3.1030000  40.8630000  17.0770000  -2.4560000  40.4600000  16.2980000
  -3.7610000  42.0030000  16.4270000  -3.4210000  42.3570000  15.1530000
  -2.6430000  41.8170000  14.6340000  -4.0360000  43.3660000  14.5300000
  -3.7490000  43.6210000  13.5100000  -5.0490000  44.0610000  15.2490000
  -5.7000000  45.0780000  14.6700000  -6.4120000  45.5480000  15.2100000
  -5.4750000  45.3540000  13.7250000  -5.3800000  43.7300000  16.5010000
  -4.7510000  42.7050000  17.1140000  -5.0300000  42.3670000  18.2710000
  -3.1490000  40.5270000  19.4320000  -3.3690000  41.2960000  20.1730000
  -2.2650000  41.1130000  18.3380000  -2.0570000  42.0840000  18.7870000
  -1.0650000  40.3900000  18.2100000  -0.4840000  40.9070000  17.6470000
  -2.3790000  39.9630000  20.4880000  -2.0150000  40.8380000  21.7840000
  -1.1980000  41.9940000  21.3270000  -1.4820000  39.9160000  22.8230000
  -3.4110000  41.3720000  22.3300000  -3.8020000  42.7410000  22.1460000
  -3.9720000  42.9330000  21.0870000  -3.0110000  43.3960000  22.5110000
  -5.0710000  43.0230000  22.9110000  -5.4310000  44.0260000  22.6810000
  -6.1210000  42.1410000  22.4340000  -6.9460000  41.7520000  23.5160000
  -7.9880000  41.9450000  23.2590000  -6.8810000  40.3000000  23.6240000
  -6.0460000  39.4520000  22.9310000  -5.3540000  39.8320000  22.1940000
  -6.1990000  38.1980000  23.2660000  -7.2040000  38.2190000  24.2280000
  -7.8000000  37.1580000  24.9670000  -7.5620000  35.9400000  24.9090000
  -8.7630000  37.6310000  25.8480000  -9.2340000  36.9600000  26.4210000
  -9.1130000  38.9510000  26.0020000 -10.0390000  39.2140000  26.9300000
 -10.5150000  38.5470000  27.5200000 -10.3050000  40.1820000  27.0400000
  -8.5870000  39.9420000  25.3060000  -7.6390000  39.5090000  24.4520000
  -4.9910000  42.7520000  24.4020000  -4.3470000  42.2190000  25.1020000
  -6.4520000  42.4990000  24.7610000  -6.3030000  42.0590000  25.7470000
  -7.1900000  43.6980000  24.8870000  -8.0320000  43.4690000  25.2870000
  -4.4410000  43.8920000  25.0630000  -3.6660000  43.7220000  26.4660000
  -3.0850000  45.0510000  26.7680000  -2.7860000  42.5270000  26.4190000
  -4.8140000  43.4060000  27.5240000  -5.6740000  44.4430000  28.0190000
  -6.1880000  44.9560000  27.2070000  -5.0530000  45.1550000  28.5620000
  -6.6970000  43.8560000  28.9620000  -7.4270000  44.6110000  29.2550000
  -7.4750000  42.8520000  28.2540000  -7.8270000  41.7990000  29.1450000
  -8.8980000  41.6100000  29.0760000  -7.2200000  40.5420000  28.6670000
  -6.3140000  40.5430000  27.6440000  -6.0190000  41.4730000  27.1810000
  -5.7780000  39.3970000  27.1990000  -5.0580000  39.4280000  26.3810000
  -6.1920000  38.1820000  27.8300000  -5.7020000  37.0080000  27.4150000
  -6.0200000  36.1730000  27.8870000  -5.0380000  36.9740000  26.6550000
  -7.0700000  38.1720000  28.8360000  -7.5950000  39.3320000  29.2820000
  -8.4000000  39.3610000  30.2260000  -6.1290000  43.0730000  30.1300000
  -5.1980000  42.5400000  30.3250000  -7.3070000  42.1950000  30.5200000
  -6.8090000  41.5360000  31.2310000  -8.3280000  42.9110000  31.1800000
  -8.9430000  42.2630000  31.5310000  -5.6850000  43.8970000  31.1920000
  -4.6150000  43.3160000  32.2380000  -4.5390000  44.2890000  33.3560000
  -3.3900000  42.9300000  31.5010000  -5.2740000  41.9780000  32.7790000
  -6.3920000  42.0370000  33.6620000  -7.2520000  42.4760000  33.1570000
  -6.1240000  42.6510000  34.5220000  -6.7470000  40.6610000  34.1320000
  -7.6580000  40.6870000  34.7290000  -7.0820000  39.8310000  32.9950000
  -6.6540000  38.5010000  33.2370000  -7.4500000  37.7700000  33.0950000
  -5.6830000  38.1390000  32.1980000  -4.9840000  39.0960000  31.5050000
  -5.1120000  40.1320000  31.7820000  -4.1150000  38.7930000  30.5390000
  -3.5960000  39.5740000  29.9830000  -3.8800000  37.4220000  30.2030000
  -3.1260000  37.0140000  29.3160000  -4.6070000  36.5180000  30.9480000
  -4.4470000  35.4640000  30.7210000  -5.5090000  36.8060000  31.9380000
  -6.1120000  35.9450000  32.5380000  -5.6160000  39.9130000  34.8010000
  -4.5270000  39.9510000  34.8230000  -6.0720000  38.4640000  34.6480000
  -5.1470000  37.9750000  34.9530000  -7.1170000  38.0850000  35.5250000
  -7.2010000  37.1310000  35.4650000  -5.4770000  40.3550000  36.1400000
  -4.1390000  40.0310000  36.9510000  -4.0810000  40.9470000  38.1170000
  -3.0360000  40.0270000  35.9750000  -4.3800000  38.5410000  37.4750000
  -3.3880000  37.8810000  38.2870000  -3.2820000  38.4510000  39.2100000
  -2.4310000  37.8510000  37.7670000  -3.8170000  36.4680000  38.6220000
  -4.5710000  36.4840000  39.4090000  -4.4930000  35.8840000  37.4850000
  -4.0030000  34.5760000  37.2560000  -4.8160000  33.8600000  37.1360000
  -3.3560000  34.5950000  35.9280000  -3.0210000  35.7900000  35.3520000
  -3.1850000  36.7100000  35.8930000  -2.4910000  35.8450000  34.1230000
  -2.2420000  36.8140000  33.6910000  -2.2780000  34.6140000  33.4430000
  -1.7570000  34.6130000  32.2160000  -1.6200000  33.7200000  31.7650000
  -1.5120000  35.4840000  31.7660000  -2.5830000  33.4360000  33.9980000
  -3.1170000  33.3900000  35.2450000  -3.3940000  32.3150000  35.7950000
  -2.6560000  35.5370000  38.9550000  -1.5680000  35.5350000  39.0130000
  -3.1390000  34.1860000  38.4670000  -2.1770000  33.6840000  38.3580000
  -3.8780000  33.5700000  39.5090000  -4.0000000  32.6510000  39.2610000
  -2.5200000  35.3520000  40.3660000  -1.8020000  34.7730000  40.6310000
  17.6700000  57.3920000  20.0950000  17.6260000  56.5440000  19.5480000
  17.2840000  57.4120000  21.0280000  19.0730000  57.8050000  20.2730000
  19.7250000  56.9320000  20.2400000  19.1930000  58.3110000  21.2310000
  19.2890000  58.7450000  19.0860000  19.5220000  58.1740000  18.1870000
  20.1020000  59.4400000  19.2960000  17.9610000  59.4860000  18.9470000
  17.8040000  59.8710000  17.9400000  17.8340000  60.2930000  19.6680000
  16.9660000  58.3720000  19.2350000  16.1250000  58.7750000  19.7990000
  16.4530000  57.7420000  17.9370000  15.2860000  57.9080000  17.5750000
  17.3380000  57.0270000  17.2450000  18.2890000  56.9820000  17.5830000
  17.0150000  56.3490000  15.9890000  17.8290000  55.6660000  15.7460000
  15.6880000  55.5540000  16.0930000  14.8460000  56.2400000  16.0010000
  15.6230000  54.5200000  14.9800000  16.4640000  53.8330000  15.0720000
  14.6890000  53.9630000  15.0550000  15.6690000  55.0220000  14.0140000
  15.5940000  54.8360000  17.4410000  16.4030000  54.1060000  17.4820000
  15.7390000  55.5830000  18.2220000  14.2710000  54.1340000  17.6540000
  14.1260000  53.3870000  16.8740000  14.2710000  53.6460000  18.6280000
  13.4620000  54.8630000  17.6140000  16.9110000  57.2990000  14.7890000
  17.7740000  57.2880000  13.9070000  15.8490000  58.1050000  14.7620000
  15.1680000  58.0310000  15.5040000  15.6010000  59.0700000  13.6830000
  14.8340000  59.7740000  14.0060000  16.8840000  59.8670000  13.3140000
  17.5960000  59.1900000  12.8420000  16.5540000  61.0090000  12.3540000
  15.8420000  61.6870000  12.8260000  17.4660000  61.5530000  12.1090000
  16.1180000  60.6030000  11.4410000  17.4630000  60.4200000  14.5020000
  18.2550000  60.9120000  14.2730000  15.0750000  58.3810000  12.4220000
  15.1850000  57.1630000  12.2820000  14.5070000  59.1700000  11.5110000
  14.4210000  60.1590000  11.6970000  13.9560000  58.6500000  10.2610000
  13.1630000  57.9340000  10.4770000  13.3720000  59.7870000   9.4190000
  14.1790000  60.5020000   9.2590000  13.0800000  59.3490000   8.4640000
  12.1800000  60.4990000  10.0350000  11.7400000  61.1440000   9.2750000
  11.4530000  59.7450000  10.3360000  12.5720000  61.3320000  11.2390000
  12.9320000  60.6690000  12.0260000  13.3680000  62.0180000  10.9500000
  11.3830000  62.1250000  11.7510000  10.9990000  62.7310000  10.9310000
  10.6160000  61.4200000  12.0720000  11.7520000  63.0080000  12.8890000
  12.4630000  63.6610000  12.5920000  10.9360000  63.5160000  13.1990000
  12.1080000  62.4460000  13.6490000  14.9890000  57.8970000   9.4260000
  14.6830000  56.8660000   8.8240000  16.2130000  58.4160000   9.3840000
  16.4200000  59.2820000   9.8610000  17.2770000  57.7780000   8.6130000
  16.9370000  57.5910000   7.5950000  18.5140000  58.6900000   8.5580000
  18.1560000  59.7040000   8.3790000  18.9910000  58.6410000   9.5370000
  19.5280000  58.3100000   7.4780000  20.1460000  57.5070000   7.8780000
  18.9770000  57.9460000   6.6110000  20.4160000  59.4740000   7.0620000
  19.8750000  60.4910000   6.5740000  21.6530000  59.3730000   7.2150000
  17.6130000  56.4320000   9.2550000  18.7010000  55.8810000   9.0700000
  16.6510000  55.9210000  10.0190000  15.8000000  56.4540000  10.1260000
  16.7550000  54.6410000  10.7050000  17.4260000  53.9840000  10.1510000
  17.3070000  54.8220000  12.1230000  16.8240000  55.7070000  12.5360000
  17.0020000  53.9440000  12.6920000  18.8150000  54.9820000  12.2080000
  19.0790000  55.8880000  11.6630000  19.0870000  55.0970000  13.2570000
  19.5650000  53.8000000  11.6170000  19.2230000  52.6460000  11.9500000
  20.5050000  54.0260000  10.8250000  15.3580000  54.0370000  10.7760000
  15.0730000  53.0300000  10.1240000  14.4820000  54.6650000  11.5570000
  14.7580000  55.4650000  12.1090000  13.1270000  54.1670000  11.6970000
  13.1540000  53.1450000  12.0740000  12.3160000  55.0260000  12.6700000
  12.7590000  54.9240000  13.6610000  12.3880000  56.0640000  12.3450000
  10.8510000  54.6120000  12.7240000  10.3070000  55.2660000  12.0430000
  10.7940000  53.5850000  12.3630000  10.2330000  54.6970000  14.1100000
   9.2910000  54.1490000  14.0860000  10.9170000  54.2120000  14.8070000
   9.9780000  56.1140000  14.5600000  10.9150000  56.6710000  14.5440000
   9.2640000  56.5840000  13.8830000   9.4220000  56.1140000  15.9500000
  10.0830000  55.6790000  16.5770000   9.2540000  57.0650000  16.2450000
   8.5540000  55.5980000  15.9650000  12.4090000  54.0790000  10.3630000
  11.6670000  53.1330000  10.1350000  12.6120000  55.0470000   9.4750000
  13.2020000  55.8450000   9.6630000  11.9430000  54.9710000   8.1780000
  10.9090000  54.6600000   8.3300000  11.9470000  56.3190000   7.4460000
  11.6300000  57.0860000   8.1530000  12.9680000  56.5230000   7.1240000
  11.0120000  56.3310000   6.2240000  11.3420000  55.5390000   5.5520000
   9.9970000  56.1220000   6.5610000  11.0100000  57.6500000   5.4590000
  10.8260000  58.7220000   6.0380000  11.2010000  57.5700000   4.1470000
  11.2100000  58.4120000   3.5890000  11.3370000  56.6680000   3.7140000
  12.6550000  53.9360000   7.3260000  12.0310000  53.2410000   6.5290000
  13.9680000  53.8360000   7.5050000  14.4410000  54.4590000   8.1440000
  14.7690000  52.8750000   6.7550000  14.6560000  53.0570000   5.6860000
  16.2540000  53.0040000   7.1200000  16.3080000  53.3130000   8.1640000
  16.7040000  52.0170000   7.0100000  17.0090000  54.0050000   6.2550000
  16.8480000  53.7440000   5.2090000  16.6030000  54.9980000   6.4470000
  18.4990000  54.0000000   6.5550000  18.6660000  54.4880000   7.5150000
  18.8440000  52.9670000   6.6090000  19.2710000  54.7360000   5.4710000
  20.3230000  54.7470000   5.7560000  19.1530000  54.1820000   4.5390000
  18.7940000  56.1340000   5.2810000  18.9040000  56.6470000   6.1440000
  19.3360000  56.5790000   4.5540000  17.8190000  56.1240000   5.0170000
  14.3050000  51.4450000   6.9950000  14.2160000  50.6500000   6.0560000
  14.0090000  51.1070000   8.2440000  14.1180000  51.7500000   9.0150000
  13.5550000  49.7570000   8.5320000  14.2180000  49.0200000   8.0790000
  13.4840000  49.4890000  10.0490000  13.0930000  48.4860000  10.2210000
  14.8700000  49.6020000  10.6550000  15.2610000  50.6050000  10.4840000
  14.8150000  49.4120000  11.7270000  15.5310000  48.8710000  10.1900000
  12.5310000  50.4650000  10.7120000  11.5350000  50.3490000  10.2840000
  12.4910000  50.2640000  11.7830000  12.8810000  51.4840000  10.5470000
  12.1840000  49.5260000   7.9040000  11.9740000  48.5230000   7.2190000
  11.2640000  50.4650000   8.1270000  11.4880000  51.2640000   8.7030000
   9.9190000  50.3660000   7.5760000   9.4120000  49.5020000   8.0060000
   9.1010000  51.6190000   7.8910000   9.7370000  52.4760000   7.6670000
   8.2460000  51.6160000   7.2150000   8.6130000  51.7130000   9.3220000
   8.0080000  50.8310000   9.5330000   9.4830000  51.7220000   9.9780000
   7.6240000  53.1990000   9.6250000   8.5720000  54.0350000  10.8400000
   9.5610000  54.2570000  10.4400000   8.0740000  54.9650000  11.1140000
   8.6710000  53.4030000  11.7230000   9.9720000  50.1820000   6.0730000
   9.3290000  49.2830000   5.5290000  10.7380000  51.0280000   5.3950000
  11.2380000  51.7780000   5.8510000  10.8280000  50.9190000   3.9450000
   9.8280000  50.9730000   3.5150000  11.6760000  52.0500000   3.3550000
  12.6530000  52.0050000   3.8370000  11.7870000  51.8470000   2.2900000
  11.0800000  53.4340000   3.5470000   9.9940000  53.3480000   3.5720000
  11.4350000  53.8350000   4.4970000  11.4650000  54.3990000   2.4390000
  11.0640000  54.2340000   1.2810000  12.2440000  55.4170000   2.7890000
  12.5320000  56.0910000   2.0940000  12.5440000  55.5120000   3.7490000
  11.4080000  49.5790000   3.5370000  11.4100000  49.2280000   2.3610000
  11.8950000  48.8220000   4.5130000  11.8900000  49.1390000   5.4720000
  12.4790000  47.5250000   4.2200000  12.7400000  47.4680000   3.1630000
  13.7430000  47.3080000   5.0460000  14.3530000  48.2070000   4.9600000
  13.4400000  47.1730000   6.0840000  14.5500000  46.1040000   4.5940000
  13.8500000  45.3490000   4.2370000  15.1950000  46.4180000   3.7730000
  15.3960000  45.5210000   5.7040000  16.1140000  46.2940000   6.3760000
  15.3430000  44.2870000   5.9000000  11.5080000  46.3920000   4.5020000
  11.4220000  45.4360000   3.7370000  10.7780000  46.4960000   5.6050000
  10.9170000  47.2570000   6.2540000   9.8360000  45.4530000   5.9610000
  10.0950000  44.5240000   5.4530000   9.8750000  45.2120000   7.4720000
   9.8420000  46.1800000   7.9720000   9.0430000  44.5970000   7.8170000
  11.1320000  44.5320000   7.9340000  12.3000000  45.2570000   8.1370000
  12.2850000  46.3390000   8.0040000  13.4800000  44.6180000   8.5060000
  14.3900000  45.1980000   8.6590000  13.4980000  43.2360000   8.6800000
  14.4190000  42.7310000   8.9700000  12.3390000  42.5030000   8.4830000
  12.3450000  41.4210000   8.6150000  11.1620000  43.1540000   8.1140000
  10.2470000  42.5810000   7.9620000   8.4050000  45.7040000   5.4980000
   7.5610000  44.8150000   5.5790000   8.1320000  46.9010000   4.9950000
   8.8380000  47.6220000   4.9560000   6.7910000  47.2200000   4.5210000
   6.0930000  47.1910000   5.3580000   6.7690000  48.6120000   3.9200000
   7.4560000  48.6540000   3.0750000   5.7600000  48.8450000   3.5790000
   7.0750000  49.3380000   4.6730000   6.3170000  46.2020000   3.4850000
   7.0980000  45.7300000   2.6590000   5.0330000  45.8660000   3.5360000
   4.4410000  46.2560000   4.2560000   4.4470000  44.9200000   2.5990000
   5.1810000  44.1640000   2.3200000   3.2520000  44.2240000   3.2480000
   2.6150000  44.9980000   3.6770000   2.7090000  43.7030000   2.4600000
   3.6450000  43.2330000   4.3330000   3.8700000  42.2780000   3.8580000
   4.5380000  43.6100000   4.8320000   2.5360000  43.0400000   5.3570000
   2.8620000  42.2970000   6.0840000   2.3620000  43.9900000   5.8620000
   1.2810000  42.5910000   4.7600000   1.2870000  42.3640000   3.7760000
   0.1400000  42.4660000   5.4330000   0.0910000  42.7550000   6.7280000
   0.9240000  43.0710000   7.2040000  -0.7790000  42.6570000   7.2310000
  -0.9550000  42.0510000   4.8110000  -0.9200000  41.8300000   3.8260000
  -1.8190000  41.9570000   5.3250000   4.0060000  45.6320000   1.3270000
   3.6070000  44.9900000   0.3630000   4.0760000  46.9620000   1.3390000
   4.4100000  47.4210000   2.1740000   3.6900000  47.7940000   0.1970000
   4.2380000  47.4800000  -0.6920000   2.2030000  47.6590000  -0.0770000
   1.9420000  48.3490000  -0.8800000   1.9230000  46.6450000  -0.3640000
   1.3520000  48.0210000   1.0890000   1.0650000  49.3500000   1.3680000
   1.4400000  50.1280000   0.7030000   0.3090000  49.6920000   2.4800000
   0.0830000  50.7390000   2.6840000  -0.1620000  48.6970000   3.3370000
  -0.7500000  48.9620000   4.2160000   0.1210000  47.3610000   3.0660000
  -0.2480000  46.5750000   3.7250000   0.8800000  47.0320000   1.9460000
   1.1110000  45.9890000   1.7320000   4.0170000  49.2500000   0.5200000
   4.0160000  49.6420000   1.6890000   4.2700000  50.0730000  -0.5170000
   3.9760000  49.7120000  -1.9140000   3.1340000  49.0210000  -1.9530000
   4.8490000  49.2470000  -2.3730000   3.6520000  51.0580000  -2.5240000
   2.6400000  51.3760000  -2.2760000   3.7730000  51.0450000  -3.6070000
   4.6630000  51.9310000  -1.8910000   4.4590000  52.9990000  -1.9680000
   5.6470000  51.7180000  -2.3100000   4.6150000  51.4980000  -0.4280000
   5.6200000  51.5350000  -0.0080000   3.6870000  52.3740000   0.4020000
   2.8430000  53.0800000  -0.1390000   3.8740000  52.3430000   1.7150000
   4.5970000  51.7600000   2.1120000   3.0570000  53.1350000   2.6160000
   3.5770000  54.0610000   2.8620000   2.1070000  53.3690000   2.1360000
   2.7880000  52.3670000   3.8930000   2.2610000  52.9060000   4.8600000
   3.1460000  51.0870000   3.8840000   3.5740000  50.6950000   3.0580000
   2.9530000  50.2230000   5.0360000   1.8990000  50.1980000   5.3140000
   3.4030000  48.8020000   4.6980000   2.8570000  48.4880000   3.8090000
   4.4700000  48.8280000   4.4780000   3.1420000  47.8180000   5.8260000
   3.6640000  46.6870000   5.7380000   2.4170000  48.1680000   6.7870000
   3.7980000  50.7730000   6.1690000   4.9910000  51.0110000   5.9940000
   3.1760000  50.9760000   7.3250000   2.1950000  50.7580000   7.4230000
   3.8800000  51.5080000   8.4740000   4.9510000  51.3430000   8.3600000
   3.6280000  53.0340000   8.6510000   4.3400000  53.4260000   9.3770000
   3.7960000  53.7680000   7.3300000   3.0840000  53.3770000   6.6030000
   3.6150000  54.8320000   7.4800000   4.8100000  53.6210000   6.9590000
   2.3000000  53.2560000   9.1490000   2.1520000  54.1980000   9.2560000
   3.4330000  50.8280000   9.7530000   3.9250000  51.1690000  10.8360000
   2.5000000  49.8820000   9.6480000   2.1020000  49.6070000   8.7610000
   2.0300000  49.2150000  10.8510000   2.8660000  49.2010000  11.5500000
   1.2270000  49.8300000  11.2580000   1.5220000  47.8040000  10.6630000
   0.6150000  47.3910000  11.3700000   2.1510000  47.0600000   9.7580000
   2.9150000  47.4850000   9.2530000   1.7550000  45.6970000   9.3990000
   0.6790000  45.5660000   9.5160000   2.1210000  45.4480000   7.9370000
   1.5930000  44.5630000   7.5810000   1.8240000  46.3110000   7.3420000
   3.5250000  45.2450000   7.8110000   3.7440000  45.0900000   6.8890000
   2.2600000  44.4840000  10.1730000   2.4950000  43.4500000   9.5570000
   2.4180000  44.5470000  11.4830000   2.2040000  45.3790000  12.0150000
   2.9150000  43.3640000  12.2060000   2.7870000  43.5370000  13.2750000
   2.1750000  42.0800000  11.8270000   2.3310000  41.8750000  10.7680000
   2.6960000  40.9260000  12.6440000   2.5400000  41.1300000  13.7030000
   2.1640000  40.0150000  12.3680000   3.7610000  40.7960000  12.4520000
   0.7770000  42.2320000  12.0850000   0.3180000  41.4240000  11.8450000
   4.3850000  43.1370000  11.8960000   5.2050000  43.1270000  12.8030000
   4.7280000  42.9400000  10.6270000   4.0460000  42.9100000   9.8820000
   6.1320000  42.7660000  10.2850000   6.5300000  41.9150000  10.8380000
   6.3290000  42.5130000   8.7900000   7.0760000  43.2310000   8.4500000
   6.7280000  41.5030000   8.6970000   5.0830000  42.6430000   7.9420000
   4.5530000  43.5360000   8.2740000   5.3890000  42.7680000   6.9030000
   4.1730000  41.4470000   8.0570000   3.5550000  41.2660000   9.1280000
   4.0840000  40.6820000   7.0750000   6.8330000  44.0600000  10.6840000
   7.6910000  44.0620000  11.5690000   6.4530000  45.1660000  10.0500000
   5.7470000  45.1370000   9.3280000   7.0550000  46.4580000  10.3790000
   8.0900000  46.4770000  10.0390000   6.2870000  47.6410000   9.7070000
   5.2300000  47.3830000   9.6410000   6.4480000  48.9190000  10.5220000
   7.5050000  49.1780000  10.5880000   5.9060000  49.7310000  10.0370000
   6.0490000  48.7640000  11.5240000   6.8190000  47.8750000   8.3120000
   6.6830000  46.9730000   7.7150000   6.2780000  48.7010000   7.8500000
   7.8800000  48.1190000   8.3630000   7.0360000  46.6700000  11.8890000
   8.0220000  47.0780000  12.4910000   5.8970000  46.3820000  12.4920000
   5.1150000  46.0500000  11.9460000   5.7130000  46.5610000  13.9200000
   5.8360000  47.6070000  14.2000000   4.2990000  46.1250000  14.2770000
   3.6900000  46.3220000  13.3950000   4.3490000  45.0500000  14.4520000
   3.6840000  46.7970000  15.4690000   4.2370000  46.5700000  16.3800000
   3.6830000  47.8740000  15.3040000   2.2650000  46.3370000  15.6410000
   1.4130000  46.5900000  14.7850000   1.9990000  45.6310000  16.7310000
   1.0600000  45.2970000  16.8960000   2.7360000  45.4310000  17.3920000
   6.7280000  45.7670000  14.7320000   7.2370000  46.2440000  15.7430000
   7.0050000  44.5470000  14.2870000   6.5330000  44.1990000  13.4650000
   7.9490000  43.6720000  14.9620000   7.8090000  43.7000000  16.0430000
   7.7710000  42.2110000  14.4770000   7.6690000  42.2130000  13.3920000
   8.9730000  41.3470000  14.8750000   9.0750000  41.3440000  15.9600000
   8.8210000  40.3270000  14.5220000   9.8790000  41.7550000  14.4260000
   6.4970000  41.6420000  15.0740000   5.6450000  42.2410000  14.7530000
   6.3650000  40.6140000  14.7370000   6.5650000  41.6620000  16.1620000
   9.3720000  44.1390000  14.6920000  10.1730000  44.2950000  15.6130000
   9.6720000  44.3710000  13.4220000   8.9830000  44.1980000  12.7040000
  10.9950000  44.8220000  13.0140000  11.7110000  44.0150000  13.1700000
  10.9910000  45.1930000  11.5230000  10.2860000  46.0060000  11.3520000
  11.9900000  45.5100000  11.2240000  10.6940000  44.3260000  10.9330000
  11.4540000  46.0090000  13.8510000  12.3260000  45.8740000  14.7050000
  10.8670000  47.1760000  13.6230000  10.1930000  47.3110000  12.8830000
  11.2860000  48.3300000  14.3870000  12.3540000  48.4960000  14.2490000
  10.5300000  49.5870000  13.9240000  11.0650000  50.3920000  14.4270000
  10.7220000  49.6390000  12.8520000   9.0350000  49.7340000  14.1800000
   8.5460000  48.7700000  14.0380000   8.8060000  50.2160000  15.6160000
   9.2950000  51.1800000  15.7590000   7.7370000  50.3210000  15.7980000
   9.2240000  49.4910000  16.3140000   8.4570000  50.7340000  13.1800000
   8.6230000  50.3710000  12.1660000   7.3870000  50.8460000  13.3550000
   8.9480000  51.6990000  13.3050000  11.1240000  48.0740000  15.8890000
  11.6460000  48.8220000  16.7120000  10.4230000  47.0110000  16.2640000
   9.9860000  46.3840000  15.6040000  10.2880000  46.7190000  17.6920000
  10.1080000  47.6480000  18.2330000   9.1250000  45.7600000  17.9650000
   8.4610000  45.8450000  17.1040000   9.5370000  44.7520000  18.0070000
   8.3330000  46.0440000  19.2530000   7.6910000  46.9100000  19.0910000
   7.4740000  44.8370000  19.6300000   8.1150000  43.9710000  19.7930000
   6.9210000  45.0550000  20.5430000   6.7730000  44.6230000  18.8230000
   9.2860000  46.3590000  20.3790000   9.8790000  47.2360000  20.1190000
   8.7200000  46.5590000  21.2890000   9.9490000  45.5090000  20.5430000
  11.6060000  46.0620000  18.1030000  12.1180000  46.2770000  19.1980000
  12.1540000  45.2640000  17.1950000  11.6890000  45.1150000  16.3110000
  13.4150000  44.5890000  17.4310000  13.4240000  44.2040000  18.4510000
  13.5990000  43.4140000  16.4620000  13.7330000  43.8030000  15.4530000
  14.8010000  42.6010000  16.8490000  14.6670000  42.2110000  17.8580000
  14.9190000  41.7710000  16.1520000  15.6910000  43.2300000  16.8180000
  12.4490000  42.5660000  16.5110000  12.5670000  41.8320000  15.9040000
  14.5680000  45.5750000  17.2310000  15.7020000  45.2850000  17.5960000
  14.2800000  46.7380000  16.6470000  13.3410000  46.9350000  16.3310000
  15.3140000  47.7440000  16.4180000  16.2250000  47.2530000  16.0760000
  14.8800000  48.7610000  15.3610000  14.8300000  48.2120000  14.4210000
  13.8850000  49.1200000  15.6240000  15.8350000  49.9610000  15.2050000
  16.1870000  50.2730000  16.1880000  17.0250000  49.5620000  14.3430000
  16.6740000  49.2500000  13.3590000  17.6980000  50.4130000  14.2350000
  17.5570000  48.7370000  14.8170000  15.1060000  51.1480000  14.5720000
  14.2700000  51.4420000  15.2060000  15.7960000  51.9860000  14.4700000
  14.7330000  50.8630000  13.5880000  15.6580000  48.4920000  17.6960000
  16.8300000  48.7550000  17.9590000  14.6510000  48.8490000  18.4910000
  13.6850000  48.6910000  18.2400000  14.9360000  49.5730000  19.7250000
  15.8770000  50.1120000  19.6130000  13.8290000  50.5820000  20.0650000
  14.0390000  50.9160000  21.0810000  13.9680000  51.4130000  19.3740000
  12.4010000  50.0900000  19.9810000  12.1320000  49.9220000  18.9380000
  12.3010000  49.1570000  20.5360000  11.4740000  51.1410000  20.5820000
  11.9750000  52.1090000  20.5760000  10.5630000  51.2000000  19.9860000
  11.1120000  50.8090000  21.9610000  11.0780000  49.8280000  22.2000000
  10.8400000  51.7040000  22.9100000  10.8940000  53.0020000  22.6390000
  11.1420000  53.3110000  21.7100000  10.6870000  53.6750000  23.3630000
  10.5010000  51.3040000  24.1320000  10.4500000  50.3170000  24.3410000
  10.2960000  51.9890000  24.8460000  15.1610000  48.6410000  20.8940000
  15.5320000  49.0790000  21.9850000  14.9340000  47.3540000  20.6590000
  14.6120000  47.0500000  19.7510000  15.1410000  46.3500000  21.6870000
  14.7070000  46.6970000  22.6250000  14.4810000  45.0170000  21.2780000
  13.6810000  45.2210000  20.5660000  15.5050000  44.0900000  20.6380000
  16.3050000  43.8850000  21.3490000  15.0220000  43.1540000  20.3560000
  15.9220000  44.5660000  19.7500000  13.8870000  44.3330000  22.5000000
  13.3280000  45.0840000  23.0580000  13.2040000  43.5610000  22.1460000
  14.9200000  43.7150000  23.3920000  15.6030000  44.4870000  23.7470000
  14.4300000  43.2440000  24.2440000  15.4800000  42.9640000  22.8350000
  16.6620000  46.1910000  21.8080000  17.2060000  46.0620000  22.9060000
  17.3430000  46.2150000  20.6650000  16.8510000  46.3290000  19.7900000
  18.7940000  46.1050000  20.6320000  19.1200000  45.2990000  21.2890000
  19.2700000  45.8000000  19.2090000  18.9340000  46.6110000  18.5630000
  20.3590000  45.7490000  19.1900000  18.7120000  44.4880000  18.6740000
  18.2370000  43.6410000  19.4390000  18.7870000  44.3030000  17.3570000
  18.4320000  43.4500000  16.9490000  19.1990000  45.0160000  16.7730000
  19.3530000  47.4530000  21.0750000  20.1370000  47.5560000  22.0180000
  18.9230000  48.4870000  20.3690000  18.2880000  48.3170000  19.6020000
  19.3260000  49.8530000  20.6370000  20.3260000  50.0420000  20.2460000
  18.3460000  50.8010000  19.9490000  17.9730000  50.2810000  19.0670000
  17.5250000  50.9650000  20.6470000  18.9300000  52.1310000  19.5390000
  18.1170000  52.8210000  19.3120000  19.5230000  52.5280000  20.3630000
  19.8110000  51.9690000  18.3160000  20.7630000  51.5280000  18.6110000
  19.3160000  51.3160000  17.5970000  20.0690000  53.2550000  17.6780000
  19.9730000  54.0850000  18.2450000  20.4330000  53.3930000  16.4070000
  20.5820000  52.3200000  15.6340000  20.4180000  51.4000000  16.0160000
  20.8590000  52.4310000  14.6690000  20.6340000  54.6040000  15.9060000
  20.5100000  55.4170000  16.4920000  20.9110000  54.7080000  14.9400000
  19.3380000  50.1470000  22.1360000  19.9830000  51.0910000  22.5820000
  18.6150000  49.3460000  22.9100000  18.0910000  48.5850000  22.5020000
  18.5380000  49.5420000  24.3520000  19.0140000  50.4850000  24.6210000
  17.0790000  49.5810000  24.8130000  16.6790000  50.5170000  24.4230000
  16.5520000  48.7430000  24.3570000  16.8880000  49.5380000  26.3340000
  17.6030000  48.8420000  26.7720000  17.1160000  50.9290000  26.9100000
  16.4010000  51.6260000  26.4730000  16.9810000  50.9020000  27.9910000
  18.1300000  51.2570000  26.6790000  15.4880000  49.0330000  26.6720000
  15.3550000  48.0300000  26.2660000  15.3620000  49.0060000  27.7540000
  14.7450000  49.7020000  26.2370000  19.2540000  48.4240000  25.0860000
  19.6170000  48.5610000  26.2540000  19.4230000  47.2940000  24.4180000
  19.1080000  47.1820000  23.4650000  20.1220000  46.1910000  25.0450000
  19.6120000  45.9070000  25.9650000  20.1600000  44.9790000  24.1130000
  19.1680000  44.8340000  23.6850000  20.8750000  45.1730000  23.3140000
  20.5450000  43.8110000  24.8180000  20.5620000  43.0640000  24.2150000
  21.5150000  46.7700000  25.2350000  22.0970000  46.7000000  26.3210000
  22.0180000  47.3820000  24.1660000  21.4940000  47.3730000  23.3030000
  23.3320000  48.0090000  24.1690000  24.1030000  47.2750000  24.4020000
  23.6160000  48.5930000  22.7830000  22.7330000  49.1490000  22.4680000
  24.4610000  49.2760000  22.8760000  23.9410000  47.5170000  21.7400000
  24.9660000  47.1850000  21.9070000  23.2570000  46.6870000  21.9200000
  23.7900000  47.9960000  20.3000000  24.0270000  49.1950000  20.0320000
  23.4460000  47.1610000  19.4310000  23.4390000  49.0840000  25.2540000
  24.4530000  49.1860000  25.9420000  22.3890000  49.8790000  25.4110000
  21.5750000  49.7670000  24.8240000  22.3680000  50.9210000  26.4310000
  23.1180000  51.6780000  26.2020000  21.0020000  51.5890000  26.4800000
  20.8610000  52.2250000  25.6060000  20.2180000  50.8320000  26.5080000
  20.8000000  52.4590000  27.6800000  21.2880000  53.7430000  27.7570000
  20.9600000  54.2660000  28.9270000  21.2580000  55.2830000  29.1810000
  20.2760000  53.3670000  29.6110000  19.8930000  53.4870000  30.5380000
  20.1640000  52.2250000  28.8530000  19.6320000  51.3590000  29.2470000
  22.6510000  50.3270000  27.8000000  23.6620000  50.6390000  28.4290000
  21.7310000  49.4810000  28.2550000  20.8980000  49.3280000  27.7050000
  21.8340000  48.8230000  29.5510000  21.5620000  49.5130000  30.3500000
  20.8780000  47.6290000  29.5900000  21.1340000  47.0290000  28.7170000
  21.0800000  47.0570000  30.4950000  19.3940000  47.9960000  29.5390000
  19.2300000  48.6930000  28.7170000  18.5470000  46.7600000  29.3290000
  18.7100000  46.0630000  30.1510000  17.4950000  47.0420000  29.2950000
  18.8250000  46.2840000  28.3890000  19.0160000  48.6960000  30.8300000
  19.6150000  49.6000000  30.9430000  17.9590000  48.9620000  30.8040000
  19.2020000  48.0300000  31.6730000  23.2500000  48.3730000  29.9120000
  23.6090000  48.3340000  31.0890000  24.0490000  48.0260000  28.9050000
  23.6990000  48.0190000  27.9580000  25.4300000  47.6010000  29.1370000
  25.4470000  46.7730000  29.8460000  26.0770000  47.1380000  27.8270000
  25.7080000  47.7820000  27.0290000  27.1550000  47.2640000  27.9270000
  25.7660000  45.6890000  27.4920000  24.6980000  45.5860000  27.2980000
  26.3260000  45.3970000  26.6030000  26.1610000  44.7870000  28.6620000
  27.2390000  44.8700000  28.8000000  25.6520000  45.1530000  29.5540000
  25.7900000  43.3300000  28.4280000  24.7080000  43.2610000  28.3150000
  26.2730000  42.9910000  27.5110000  26.2280000  42.4680000  29.5700000
  25.7800000  42.7810000  30.4190000  25.9690000  41.5090000  29.3870000
  27.2310000  42.5320000  29.6750000  26.2530000  48.7290000  29.7520000
  26.7420000  48.6100000  30.8750000  26.4010000  49.8230000  29.0100000
  25.9890000  49.8660000  28.0890000  27.1460000  50.9830000  29.4890000
  28.2070000  50.7600000  29.6040000  26.9950000  52.1820000  28.5280000
  25.9360000  52.3920000  28.3790000  27.6780000  53.4090000  29.1160000
  28.7370000  53.2000000  29.2640000  27.5670000  54.2500000  28.4320000
  27.2200000  53.6570000  30.0730000  27.5700000  51.8330000  27.1670000
  27.0370000  50.9750000  26.7560000  27.4590000  52.6850000  26.4960000
  28.6270000  51.5880000  27.2710000  26.6400000  51.4190000  30.8600000
  27.4200000  51.8460000  31.7130000  25.3280000  51.3120000  31.0610000
  24.7350000  50.9610000  30.3220000  24.7050000  51.7050000  32.3190000
  25.4550000  52.1190000  32.9930000  23.6330000  52.7690000  32.0660000
  22.7310000  52.2960000  31.6780000  23.3960000  53.3010000  32.9870000
  24.0370000  53.8060000  31.0640000  24.2450000  53.5110000  29.7340000
  24.5760000  54.6160000  29.0860000  24.7810000  54.5940000  28.0160000
  24.5920000  55.6140000  29.9510000  24.8110000  56.5770000  29.7400000
  24.2610000  55.1360000  31.1960000  24.2230000  55.8150000  32.0480000
  24.0700000  50.5010000  32.9950000  22.8590000  50.3080000  32.9170000
  24.8860000  49.6970000  33.6640000  25.8800000  49.8730000  33.6750000
  24.3880000  48.5090000  34.3400000  23.6740000  47.9870000  33.7040000
  25.5480000  47.5640000  34.6490000  26.1520000  48.0210000  35.4330000
  25.1270000  46.6270000  35.0150000  26.4170000  47.2880000  33.4380000
  25.7730000  47.2800000  32.5590000  27.1390000  48.1000000  33.3520000
  27.1540000  45.9660000  33.5370000  27.8850000  46.0220000  34.3430000
  26.4390000  45.1710000  33.7500000  27.8670000  45.6680000  32.2250000
  27.1700000  45.8610000  31.4090000  28.7190000  46.3420000  32.1420000
  28.3390000  44.2630000  32.1500000  27.5490000  43.6380000  32.2270000
  28.8040000  44.1110000  31.2660000  28.9850000  44.0840000  32.9060000
  23.6270000  48.8440000  35.6180000  23.0450000  47.9640000  36.2550000
  23.6230000  50.1180000  35.9920000  24.1500000  50.8100000  35.4790000
  22.9140000  50.5400000  37.1920000  22.7450000  49.6840000  37.8450000
  23.7400000  51.5810000  37.9530000  24.2210000  52.2170000  37.2100000
  23.0440000  52.1760000  38.5440000  24.7980000  50.9810000  38.8680000
  24.2870000  50.4280000  39.6560000  25.4040000  50.2940000  38.2770000
  25.6990000  52.0460000  39.4950000  25.0770000  52.9030000  39.7530000
  26.1340000  51.6270000  40.4020000  26.8210000  52.4950000  38.5510000
  27.4950000  53.1230000  39.1340000  27.3470000  51.5950000  38.2320000
  26.3530000  53.2490000  37.3510000  25.8660000  54.0830000  37.6460000
  27.1480000  53.5070000  36.7840000  25.7290000  52.6680000  36.8100000
  21.5200000  51.1020000  36.9020000  20.7700000  51.3990000  37.8310000
  21.1690000  51.2310000  35.6220000  21.8260000  50.9950000  34.8920000
  19.8640000  51.7740000  35.2340000  19.7670000  52.7920000  35.6120000
  19.7070000  51.8000000  33.7090000  20.7040000  51.7480000  33.2730000
  19.1340000  50.9230000  33.4090000  19.0010000  53.0620000  33.2160000
  18.1890000  53.6310000  33.9810000  19.2540000  53.4790000  32.0610000
  18.6790000  51.0210000  35.8320000  17.8510000  51.6160000  36.5190000
  18.5960000  49.7200000  35.5680000  19.2790000  49.2830000  34.9660000
  17.4980000  48.9010000  36.0810000  17.6110000  47.8760000  35.7290000
  17.4900000  48.8940000  37.6180000  18.1860000  48.1400000  37.9860000
  17.7790000  49.8730000  38.0010000  16.1520000  48.5740000  38.2220000
  15.1160000  49.4840000  38.2630000  14.0650000  48.9300000  38.8440000
  13.1400000  49.4920000  38.9730000  14.3810000  47.6940000  39.1800000
  13.7740000  47.0310000  39.6400000  15.6800000  47.4440000  38.8030000
  16.1260000  46.4680000  38.9970000  16.1430000  49.3700000  35.5690000
  15.5070000  48.6810000  34.7770000  15.7060000  50.5390000  36.0270000
  16.2540000  51.0470000  36.7070000  14.4170000  51.0900000  35.6270000
  13.6130000  50.5500000  36.1270000  14.3250000  52.5670000  36.0090000
  15.1470000  52.8530000  36.6650000  14.3540000  53.1750000  35.1050000
  13.0610000  52.9250000  36.7250000  12.8580000  52.6470000  38.0620000
  11.6540000  53.0570000  38.4160000  11.3030000  52.9260000  39.4400000
  11.0660000  53.5920000  37.3580000  10.1380000  53.9900000  37.3300000
  11.9250000  53.5210000  36.2890000  11.6210000  53.9120000  35.3180000
  14.1500000  50.9250000  34.1320000  13.0510000  50.5360000  33.7500000
  15.1430000  51.2120000  33.2910000  16.0270000  51.5650000  33.6300000
  14.9640000  51.0630000  31.8490000  14.0480000  51.5690000  31.5450000
  16.1340000  51.6660000  31.0750000  17.0670000  51.2400000  31.4440000
  16.0230000  51.4330000  30.0160000  16.1560000  53.0640000  31.2480000
  16.8940000  53.4350000  30.7590000  14.8140000  49.6090000  31.4460000
  14.2750000  49.3070000  30.3840000  15.2980000  48.7010000  32.2780000
  15.7850000  48.9560000  33.1250000  15.1750000  47.2880000  31.9520000
  15.5680000  47.0980000  30.9530000  15.9700000  46.4500000  32.9580000
  16.9630000  46.8750000  33.1060000  15.4420000  46.4210000  33.9110000
  16.1710000  45.0280000  32.5370000  15.5070000  43.9760000  33.1290000
  15.8890000  42.8430000  32.5640000  15.4770000  41.8900000  32.8960000
  16.7750000  43.1250000  31.6250000  17.2400000  42.4570000  31.0270000
  16.9690000  44.4860000  31.5870000  17.6690000  44.9170000  30.8710000
  13.6940000  46.8710000  31.9480000  13.3100000  45.9230000  31.2610000
  12.8750000  47.5880000  32.7180000  13.2480000  48.3590000  33.2530000
  11.4400000  47.3150000  32.8020000  11.2740000  46.3800000  33.3360000
  10.7220000  48.4370000  33.5480000  10.8800000  49.3420000  32.9610000
   9.6630000  48.1790000  33.5390000  11.1730000  48.6770000  34.9830000
  10.9230000  47.8110000  35.5960000  12.2510000  48.8390000  35.0070000
  10.4600000  49.9120000  35.5320000  10.8280000  50.7820000  34.9870000
   9.3920000  49.7930000  35.3470000  10.6660000  50.1340000  36.9630000
  11.1890000  50.9560000  37.2280000  10.2250000  49.3260000  37.9220000
   9.5490000  48.2270000  37.6100000   9.3700000  48.0060000  36.6410000
   9.2170000  47.6170000  38.3430000  10.4490000  49.6250000  39.1950000
  10.9550000  50.4670000  39.4310000  10.1130000  49.0090000  39.9220000
  10.8760000  47.2380000  31.3950000  10.1850000  46.2860000  31.0330000
  11.1890000  48.2550000  30.6030000  11.7640000  49.0130000  30.9420000
  10.7180000  48.3090000  29.2330000   9.6430000  48.1300000  29.2310000
  10.9210000  49.3040000  28.8380000  11.3900000  47.2810000  28.3470000
  10.7880000  46.7910000  27.3910000  12.6440000  46.9540000  28.6430000
  13.1350000  47.3560000  29.4290000  13.3340000  45.9710000  27.8320000
  13.4670000  46.3630000  26.8230000  14.7120000  45.6380000  28.4130000
  15.2030000  46.6090000  28.4710000  14.5400000  45.2570000  29.4200000
  15.6110000  44.6530000  27.6370000  16.6150000  44.7050000  28.0580000
  15.1010000  43.2270000  27.7230000  14.0970000  43.1740000  27.3020000
  15.7650000  42.5690000  27.1620000  15.0740000  42.9120000  28.7660000
  15.6820000  45.0950000  26.2000000  16.1030000  46.0990000  26.1490000
  16.3150000  44.4070000  25.6390000  14.6800000  45.0990000  25.7710000
  12.4620000  44.7400000  27.8560000  12.2800000  44.0820000  26.8280000
  11.9060000  44.4510000  29.0340000  12.1260000  45.0160000  29.8410000
  11.0600000  43.2760000  29.2220000  11.5150000  42.4070000  28.7470000
  10.8950000  42.9860000  30.7170000  10.8480000  43.9620000  31.1990000
   9.9550000  42.4570000  30.8770000  12.0550000  42.1680000  31.3230000
  11.9170000  41.1150000  31.0770000  13.3880000  42.6500000  30.7620000
  13.5270000  43.7030000  31.0080000  14.1990000  42.0650000  31.1970000
  13.3930000  42.5270000  29.6790000  12.0480000  42.2750000  32.8410000
  11.1040000  41.8910000  33.2280000  12.8730000  41.6920000  33.2510000
  12.1620000  43.3190000  33.1330000   9.7130000  43.4090000  28.5370000
   9.2610000  42.4770000  27.8640000   9.0870000  44.5740000  28.6940000
   9.4910000  45.2880000  29.2820000   7.8020000  44.8440000  28.0640000
   7.0640000  44.1150000  28.3990000   7.3110000  46.2480000  28.4410000
   8.1180000  46.9450000  28.2170000   6.4520000  46.4720000  27.8080000
   6.9110000  46.3870000  29.9120000   6.0210000  45.7750000  30.0600000
   7.7310000  45.9840000  30.5060000   6.5630000  48.0910000  30.4510000
   5.8610000  47.7770000  32.0730000   6.5940000  47.2600000  32.6930000
   5.5920000  48.7230000  32.5420000   4.9700000  47.1570000  31.9700000
   7.9410000  44.7180000  26.5460000   7.2070000  43.9600000  25.9180000
   8.8850000  45.4540000  25.9610000   9.4560000  46.0760000  26.5160000
   9.1210000  45.3980000  24.5150000   8.2730000  45.8300000  23.9840000
  10.3750000  46.1860000  24.1520000  11.1700000  45.8220000  24.8030000
  10.6100000  45.9370000  23.1170000  10.2560000  47.6800000  24.2930000
   9.5560000  48.0480000  23.5430000   9.8750000  47.9080000  25.2880000
  11.8480000  48.4950000  24.0670000  12.0920000  49.1090000  25.6990000
  12.1120000  48.2760000  26.4020000  13.0390000  49.6470000  25.7480000
  11.2770000  49.7840000  25.9590000   9.3010000  43.9590000  24.0280000
   8.7360000  43.5660000  23.0070000  10.1060000  43.1880000  24.7610000
  10.5690000  43.5900000  25.5640000  10.3830000  41.7940000  24.4280000
  10.8080000  41.7170000  23.4270000  11.3850000  41.1750000  25.4430000
  11.0600000  41.4220000  26.4540000  11.4480000  39.6540000  25.2850000
  11.7730000  39.4060000  24.2750000  12.1550000  39.2420000  26.0050000
  10.4600000  39.2290000  25.4630000  12.7610000  41.7670000  25.2210000
  12.7200000  42.8470000  25.3650000  13.4630000  41.3330000  25.9330000
  13.0920000  41.5480000  24.2060000   9.1110000  40.9500000  24.4020000
   8.9140000  40.1500000  23.4820000   8.2600000  41.1280000  25.4140000
   8.4680000  41.7850000  26.1530000   7.0120000  40.3840000  25.4830000
   7.2300000  39.3160000  25.4580000   6.5010000  40.6280000  26.4140000
   6.1040000  40.7310000  24.3150000   5.5250000  39.8560000  23.6600000
   5.9840000  42.0290000  24.0560000   6.4660000  42.6990000  24.6390000
   5.1690000  42.5280000  22.9650000   4.1230000  42.2690000  23.1260000
   5.2900000  44.0540000  22.8910000   4.9800000  44.4360000  23.8640000
   6.3460000  44.2730000  22.7360000   4.4670000  44.7230000  21.7970000
   4.6070000  45.8020000  21.8610000   4.8120000  44.3690000  20.8260000
   2.9930000  44.4190000  21.9250000   2.3930000  44.6640000  22.9670000
   2.3980000  43.8790000  20.8640000   1.4130000  43.6570000  20.8990000
   2.9340000  43.6940000  20.0280000   5.6460000  41.8990000  21.6610000
   4.8360000  41.4110000  20.8630000   6.9610000  41.8980000  21.4520000
   7.5840000  42.3230000  22.1240000   7.5360000  41.3460000  20.2250000
   7.1150000  41.8580000  19.3600000   9.0600000  41.5280000  20.2090000
   9.2530000  42.5580000  20.5080000   9.4620000  40.8500000  20.9620000
   9.7370000  41.2510000  18.8570000   8.9740000  41.2870000  18.0790000
  10.4750000  42.0330000  18.6780000  10.4270000  39.8820000  18.8320000
   9.6940000  39.1150000  19.0830000  10.8120000  39.7020000  17.8280000
  11.5380000  39.7980000  19.7830000  11.4140000  39.1970000  20.5850000
  12.6960000  40.4430000  19.6450000  12.9070000  41.2190000  18.5890000
  12.1870000  41.3200000  17.8880000  13.7870000  41.7050000  18.4910000
  13.6380000  40.3290000  20.5750000  13.4740000  39.7520000  21.3870000
  14.5140000  40.8200000  20.4650000   7.1870000  39.8820000  20.0540000
   6.9350000  39.4300000  18.9400000   7.1580000  39.1370000  21.1550000
   7.4150000  39.5120000  22.0570000   6.8290000  37.7210000  21.0650000
   7.2880000  37.2920000  20.1740000   7.3490000  36.9680000  22.2950000
   8.3940000  37.2470000  22.4280000   6.7700000  37.3100000  23.1530000
   7.2380000  35.4430000  22.1800000   7.7800000  35.0000000  23.0160000
   6.1840000  35.1740000  22.2480000   7.8190000  34.9130000  20.8510000
   7.4580000  33.8940000  20.7120000   7.4410000  35.5440000  20.0470000
   9.2840000  34.9050000  20.7930000   9.7790000  35.1500000  21.6390000
   9.9950000  34.6080000  19.7020000   9.3850000  34.2980000  18.5650000
   8.3760000  34.2860000  18.5240000   9.9330000  34.0750000  17.7460000
  11.3220000  34.6090000  19.7450000  11.7960000  34.8360000  20.6080000
  11.8510000  34.3830000  18.9150000   5.3230000  37.4890000  20.8910000
   4.9140000  36.4800000  20.3220000   4.4960000  38.4180000  21.3690000
   4.8520000  39.1990000  21.9010000   3.0420000  38.2810000  21.2210000
   2.7490000  37.2470000  21.4040000   2.3080000  39.1840000  22.2240000
   2.8160000  40.1480000  22.2520000   1.2850000  39.3230000  21.8750000
   2.2890000  38.5800000  23.6210000   1.9110000  37.5620000  23.5270000
   3.3200000  38.5530000  23.9740000   1.4380000  39.3440000  24.6090000
   0.5280000  39.6730000  24.1070000   1.1780000  38.6810000  25.4340000
   2.1220000  40.5120000  25.1470000   2.8590000  40.3440000  25.8160000
   1.8420000  41.7690000  24.8140000   0.8810000  42.0400000  23.9360000
   0.3570000  41.2850000  23.5160000   0.6790000  42.9990000  23.6930000
   2.5270000  42.7570000  25.3670000   3.2550000  42.5500000  26.0360000
   2.3190000  43.7130000  25.1180000   2.5700000  38.5640000  19.7860000
   1.6250000  37.9410000  19.2990000   3.2290000  39.4970000  19.1060000
   3.9920000  40.0150000  19.5180000   2.8650000  39.7850000  17.7300000
   1.7920000  39.9630000  17.6640000   3.5990000  41.0300000  17.2240000
   4.6580000  40.8040000  17.3460000   3.3730000  41.1490000  16.1640000
   3.2650000  42.3280000  17.9650000   3.5370000  42.2200000  19.0150000
   4.0390000  43.4960000  17.3560000   3.7670000  43.6040000  16.3060000
   3.7940000  44.4130000  17.8910000   5.1090000  43.3050000  17.4360000
   1.7620000  42.5810000  17.8940000   1.2310000  41.7500000  18.3590000
   1.5230000  43.5050000  18.4210000   1.4570000  42.6690000  16.8510000
   3.2860000  38.5590000  16.9280000   2.4980000  38.0000000  16.1640000
   4.5330000  38.1380000  17.1250000   5.1450000  38.6580000  17.7370000
   5.0740000  36.9760000  16.4330000   5.1370000  37.1720000  15.3630000
   6.4770000  36.6680000  16.9570000   6.5000000  37.1970000  17.9100000
   6.5230000  35.5940000  17.1370000   7.6810000  37.0960000  16.1050000
   7.9160000  36.2920000  15.4080000   7.3840000  38.3720000  15.3270000
   7.1490000  39.1770000  16.0240000   8.2560000  38.6480000  14.7340000
   6.5340000  38.2050000  14.6660000   8.8960000  37.2740000  17.0310000
   9.1120000  36.3310000  17.5330000   9.7610000  37.5780000  16.4420000
   8.6770000  38.0390000  17.7760000   4.1710000  35.7500000  16.5790000
   3.9020000  35.0600000  15.6010000   3.6950000  35.4730000  17.7860000
   3.9220000  36.0330000  18.5950000   2.8190000  34.3220000  17.9660000
   3.3220000  33.4220000  17.6120000   2.4580000  34.1330000  19.4370000
   3.3450000  34.3660000  20.0260000   1.6670000  34.8440000  19.6760000
   1.9900000  32.7280000  19.7630000   1.4870000  32.3220000  18.8850000
   2.8650000  32.1200000  19.9930000   1.0320000  32.7100000  20.9520000
   1.0940000  31.7400000  21.4440000   1.3210000  33.4920000  21.6540000
  -0.3530000  32.9390000  20.5390000  -0.5440000  32.9340000  19.5470000
  -1.3620000  33.1550000  21.3790000  -1.1450000  33.1780000  22.6890000
  -0.2120000  33.0310000  23.0460000  -1.9140000  33.3420000  23.3220000
  -2.5900000  33.3430000  20.9100000  -2.7560000  33.3220000  19.9140000
  -3.3530000  33.5070000  21.5520000   1.5370000  34.5430000  17.1560000
   0.9860000  33.6060000  16.5800000   1.0580000  35.7840000  17.1230000
   1.5210000  36.5250000  17.6300000  -0.1450000  36.1080000  16.3760000
  -0.9770000  35.5040000  16.7390000  -0.5040000  37.5870000  16.5440000
  -1.0180000  37.6190000  17.5040000   0.3870000  38.2130000  16.5880000
  -1.4290000  38.1010000  15.4580000  -2.7610000  37.7100000  15.4090000
  -3.1570000  37.0970000  16.2180000  -3.5860000  38.0860000  14.3540000
  -4.6320000  37.7790000  14.3370000  -3.0790000  38.8640000  13.3340000
  -3.8860000  39.2180000  12.2770000  -4.7780000  38.8700000  12.3530000
  -1.7590000  39.2750000  13.3630000  -1.3560000  39.8940000  12.5610000
  -0.9440000  38.8940000  14.4240000   0.0960000  39.2180000  14.4560000
   0.0610000  35.8100000  14.8990000  -0.7400000  35.1220000  14.2810000
   1.1360000  36.3420000  14.3360000   1.7530000  36.9230000  14.8850000
   1.4440000  36.1460000  12.9250000   0.5680000  36.3680000  12.3160000
   2.5780000  37.0800000  12.5070000   2.2070000  38.0920000  12.6690000
   3.4250000  36.8930000  13.1680000   3.0230000  36.9280000  11.0550000
   3.1750000  35.8740000  10.8240000   1.9480000  37.4920000  10.1520000
   1.7960000  38.5460000  10.3820000   2.2560000  37.3890000   9.1110000
   1.0170000  36.9480000  10.3110000   4.3390000  37.6550000  10.8290000
   5.1040000  37.2340000  11.4820000   4.6450000  37.5390000   9.7890000
   4.2130000  38.7140000  11.0540000   1.8430000  34.7080000  12.5920000
   1.9580000  34.3430000  11.4210000   2.0620000  33.8970000  13.6200000
   1.9830000  34.2430000  14.5660000   2.4570000  32.5060000  13.4230000
   3.0970000  32.4160000  12.5450000   3.2350000  32.0130000  14.6500000
   3.9670000  32.7870000  14.8790000   2.5120000  31.9450000  15.4630000
   3.9450000  30.6760000  14.4890000   3.2000000  29.9160000  14.2530000
   4.6640000  30.7460000  13.6730000   4.6860000  30.2560000  15.7590000
   4.0740000  29.9250000  16.7780000   6.0120000  30.2800000  15.7010000
   6.5550000  30.0130000  16.5100000   6.4720000  30.5650000  14.8480000
   1.2240000  31.6320000  13.1870000   1.3060000  30.5970000  12.5270000
   0.0870000  32.0610000  13.7300000   0.0800000  32.9290000  14.2460000
  -1.1680000  31.3290000  13.5900000  -0.9650000  30.2580000  13.6020000
  -2.1380000  31.6580000  14.7350000  -2.5430000  32.6450000  14.5110000
  -2.9350000  30.9160000  14.6760000  -1.5500000  31.6590000  16.1380000
  -1.2490000  30.6430000  16.3950000  -0.6770000  32.3110000  16.1540000
  -2.5830000  32.1610000  17.1600000  -3.1840000  31.3180000  17.4990000
  -2.0570000  32.5970000  18.0100000  -3.4760000  33.1760000  16.5890000
  -3.5850000  33.1700000  15.5850000  -4.1340000  34.0960000  17.2950000
  -4.0080000  34.1530000  18.6160000  -3.4090000  33.4940000  19.0920000
  -4.5120000  34.8550000  19.1380000  -4.9320000  34.9600000  16.6760000
  -5.0370000  34.9160000  15.6720000  -5.4300000  35.6560000  17.2120000
  -1.8480000  31.7150000  12.2890000  -2.2050000  30.8570000  11.4820000
  -2.0300000  33.0170000  12.0970000  -1.7580000  33.6740000  12.8140000
  -2.7030000  33.5270000  10.9140000  -3.6000000  32.9410000  10.7130000
  -3.1100000  34.9830000  11.1280000  -2.2030000  35.5380000  11.3670000
  -3.5190000  35.3440000  10.1840000  -4.1320000  35.1850000  12.2320000
  -3.6700000  34.8820000  13.1720000  -4.3780000  36.2460000  12.2740000
  -5.4010000  34.3790000  12.0080000  -5.9730000  34.4710000  10.9010000
  -5.8290000  33.6570000  12.9380000  -1.9360000  33.4160000   9.6080000
  -2.5490000  33.2720000   8.5520000  -0.6090000  33.4670000   9.6520000
  -0.0960000  33.6010000  10.5120000   0.1400000  33.3970000   8.4040000
  -0.3710000  32.7580000   7.6840000   0.2500000  34.8020000   7.8170000
  -0.7000000  35.3060000   7.9980000   1.0470000  35.3340000   8.3370000
   0.5370000  34.7880000   6.3390000  -0.4140000  34.9470000   5.5420000
   1.7170000  34.6030000   5.9770000   1.5350000  32.7820000   8.5360000
   2.5440000  33.4750000   8.4140000   1.6070000  31.4610000   8.7570000
   0.4760000  30.5170000   8.7790000   0.0920000  30.3710000   7.7690000
  -0.3190000  30.9020000   9.4170000   1.1160000  29.2650000   9.3450000
   0.5650000  28.3720000   9.0520000   1.1800000  29.3110000  10.4320000
   2.4770000  29.2930000   8.7290000   2.4700000  29.0370000   7.6690000
   3.1790000  28.6460000   9.2540000   2.8800000  30.7480000   8.9070000
   3.2240000  30.9250000   9.9260000   3.9630000  31.1740000   7.9250000
   5.0670000  31.5330000   8.3270000   3.6520000  31.1280000   6.6360000
   2.7480000  30.8010000   6.3270000   4.6260000  31.5170000   5.6280000
   5.3660000  30.7270000   5.5040000   3.9340000  31.7560000   4.2800000
   4.6350000  32.3090000   3.6560000   3.7500000  30.7770000   3.8390000
   2.6210000  32.5260000   4.3740000   1.8600000  31.8430000   4.7510000
   2.7690000  33.3350000   5.0890000   2.1670000  33.1050000   3.0390000
   2.1120000  32.3540000   2.0410000   1.8590000  34.3160000   2.9910000
   5.3630000  32.7790000   6.0610000   6.5790000  32.7600000   6.2770000
   4.6120000  33.8680000   6.2040000   3.6300000  33.8250000   5.9740000
   5.1740000  35.1550000   6.5990000   5.9220000  35.4760000   5.8740000
   4.0640000  36.2120000   6.6580000   3.2000000  35.7510000   7.1370000
   4.4270000  37.0320000   7.2780000   3.6590000  36.7510000   5.2880000
   4.3630000  37.5350000   5.0100000   3.7230000  35.9340000   4.5690000
   2.2470000  37.3150000   5.2890000   2.0260000  37.7030000   4.2950000
   1.5510000  36.5110000   5.5280000   2.0700000  38.3900000   6.2600000
   2.8950000  38.8970000   6.5480000   0.8970000  38.7340000   6.7860000
  -0.2070000  38.0840000   6.4400000  -0.1550000  37.3260000   5.7750000
  -1.0940000  38.3510000   6.8430000   0.8260000  39.7330000   7.6570000
   1.6650000  40.2310000   7.9190000  -0.0660000  39.9910000   8.0540000
   5.9370000  35.1220000   7.9200000   6.8120000  35.9540000   8.1480000
   5.6190000  34.1630000   8.7830000   4.8800000  33.5050000   8.5780000
   6.2980000  34.0630000  10.0730000   6.2810000  35.0340000  10.5690000
   5.6150000  33.0420000  10.9770000   4.6420000  33.4570000  11.2420000
   5.4750000  32.1150000  10.4210000   6.4000000  32.7600000  12.2340000
   6.5100000  33.7140000  13.2370000   6.0030000  34.6700000  13.1110000
   7.2490000  33.4670000  14.3830000   7.3320000  34.2270000  15.1600000
   7.8940000  32.2530000  14.5320000   8.6200000  31.9910000  15.6710000
   8.6120000  32.7190000  16.2970000   7.8030000  31.2920000  13.5470000
   8.3140000  30.3360000  13.6610000   7.0560000  31.5480000  12.4070000
   6.9760000  30.7910000  11.6270000   7.7650000  33.6840000   9.9330000
   8.6340000  34.3010000  10.5560000   8.0360000  32.6510000   9.1380000
   7.2940000  32.1430000   8.6780000   9.4090000  32.2160000   8.9200000
   9.8810000  32.0050000   9.8800000   9.4550000  30.9450000   8.0610000
   8.6910000  31.0580000   7.2920000  10.4390000  30.9180000   7.5930000
   9.2180000  29.6380000   8.8280000   9.4550000  28.8080000   8.1620000
   9.8930000  29.6210000   9.6840000   7.7810000  29.5040000   9.3130000
   7.6970000  28.6110000   9.9330000   7.5220000  30.3820000   9.9050000
   6.8370000  29.3930000   8.2020000   6.1990000  30.1630000   8.0600000
   6.7670000  28.3510000   7.3790000   7.5870000  27.3240000   7.5450000
   8.2620000  27.3370000   8.2960000   7.5330000  26.5330000   6.9200000
   5.8810000  28.3360000   6.3900000   5.2570000  29.1200000   6.2630000
   5.8350000  27.5400000   5.7700000  10.1360000  33.3540000   8.2200000
  11.2650000  33.7010000   8.5700000   9.4740000  33.9370000   7.2280000
   8.5570000  33.6110000   6.9590000  10.0500000  35.0500000   6.4960000
  10.8860000  34.7030000   5.8880000   9.0010000  35.6750000   5.5740000
   8.0870000  35.7710000   6.1600000   9.3680000  36.6670000   5.3100000
   8.7080000  34.8840000   4.2990000   8.6320000  33.8320000   4.5720000
   7.7500000  35.2280000   3.9090000   9.9830000  35.0780000   3.0110000
  10.8030000  33.4720000   3.0750000  10.0810000  32.6860000   2.8530000
  11.6070000  33.4450000   2.3400000  11.2160000  33.3140000   4.0710000
  10.5440000  36.0850000   7.4970000  11.7420000  36.3490000   7.5940000
   9.6150000  36.6510000   8.2600000   8.6410000  36.4150000   8.1320000
   9.9550000  37.6690000   9.2440000  10.4130000  38.5220000   8.7440000
   8.7090000  38.1480000   9.9830000   8.0220000  38.5510000   9.2390000
   8.2340000  37.3150000  10.5020000   9.0640000  39.2390000  10.9910000
   9.9100000  38.9250000  11.6030000   9.4330000  40.4820000  10.2260000
   8.5880000  40.7970000   9.6140000   9.6910000  41.2770000  10.9260000
  10.2880000  40.2730000   9.5830000   7.9130000  39.5170000  11.9340000
   7.6640000  38.6080000  12.4820000   8.2000000  40.2980000  12.6380000
   7.0450000  39.8450000  11.3620000  10.9920000  37.2440000  10.2780000
  11.9310000  37.9930000  10.5460000  10.8250000  36.0610000  10.8700000
  10.0090000  35.4960000  10.6830000  11.7720000  35.5970000  11.8830000
  11.8490000  36.3360000  12.6810000  11.3510000  34.2300000  12.4840000
  12.1020000  33.9010000  13.2020000  10.0200000  34.3780000  13.1800000
   9.2690000  34.7070000  12.4620000   9.7220000  33.4190000  13.6030000
  10.1070000  35.1150000  13.9780000  11.2620000  33.1560000  11.4010000
  10.6620000  32.3420000  11.8080000  10.7420000  33.6010000  10.5530000
  12.5990000  32.6170000  10.9450000  13.1200000  32.1710000  11.7920000
  12.4430000  31.8600000  10.1760000  13.1990000  33.4300000  10.5370000
  13.1980000  35.5220000  11.3440000  14.1350000  35.1730000  12.0650000
  13.3440000  35.8480000  10.0640000  12.5300000  36.1080000   9.5250000
  14.6430000  35.8830000   9.4110000  15.3680000  35.3190000   9.9980000
  14.5550000  35.2640000   8.0210000  14.0690000  34.2950000   8.1310000
  13.9260000  35.9180000   7.4170000  15.8940000  35.0820000   7.3390000
  16.3920000  36.0510000   7.3020000  16.4870000  34.3910000   7.9380000
  15.7490000  34.5350000   5.9350000  15.0970000  33.4790000   5.7800000
  16.2820000  35.1580000   4.9900000  14.9660000  37.3730000   9.3060000
  14.1890000  38.2090000   9.7620000  16.1000000  37.7200000   8.7160000
  16.7320000  37.0340000   8.3290000  16.4560000  39.1290000   8.6050000
  17.4120000  39.2300000   8.0900000  15.3910000  39.8880000   7.8110000
  14.5020000  39.9330000   8.4400000  15.7750000  40.8960000   7.6530000
  15.0320000  39.2670000   6.4720000  15.9120000  39.2940000   5.8300000
  14.7360000  38.2310000   6.6380000  13.8890000  40.0210000   5.7990000
  13.6300000  39.5020000   4.8760000  13.0310000  40.0160000   6.4710000
  14.2750000  41.4550000   5.4810000  14.5160000  41.9620000   6.4150000
  15.1550000  41.4400000   4.8380000  13.1740000  42.1780000   4.7960000
  12.3590000  42.1920000   5.3920000  13.4640000  43.1250000   4.6000000
  12.9500000  41.7080000   3.9300000  16.5470000  39.7220000  10.0110000
  16.7560000  40.9240000  10.1800000  16.3850000  38.8680000  11.0150000
  16.2170000  37.8940000  10.8080000  16.4370000  39.2790000  12.4140000
  17.1660000  40.0780000  12.5450000  15.0580000  39.7960000  12.8520000
  14.4120000  38.9360000  12.6770000  15.1320000  39.9820000  13.9230000
  14.4640000  41.0310000  12.1580000  14.7320000  41.0120000  11.1020000
  12.9500000  41.0300000  12.2960000  12.6810000  41.0490000  13.3520000
  12.5390000  41.9100000  11.8010000  12.5430000  40.1300000  11.8340000
  15.0600000  42.2930000  12.7570000  16.1410000  42.2860000  12.6180000
  14.6360000  43.1660000  12.2620000  14.8320000  42.3330000  13.8220000
  16.8370000  38.0550000  13.2530000  17.6840000  38.1420000  14.1470000
  16.2160000  36.9170000  12.9490000  15.5220000  36.8930000  12.2150000
  16.5130000  35.6850000  13.6560000  16.1210000  34.8590000  13.0630000
  17.5970000  35.5970000  13.7290000  15.9200000  35.6180000  15.0440000
  16.1870000  36.4840000  15.8740000  15.1130000  34.5880000  15.2940000
  14.9220000  33.9180000  14.5630000  14.4820000  34.3890000  16.5990000
  14.5010000  35.3040000  17.1920000  13.0240000  33.8990000  16.4560000
  12.6820000  33.5090000  17.4150000  12.1280000  35.0460000  16.0280000
  12.4700000  35.4360000  15.0690000  11.1030000  34.6900000  15.9300000
  12.1670000  35.8370000  16.7770000  12.9690000  32.7300000  15.4690000
  13.3610000  33.0950000  14.5200000  13.6260000  31.9520000  15.8580000
  11.5850000  32.1600000  15.2560000  10.9270000  32.9370000  14.8660000
  11.6360000  31.3370000  14.5430000  11.1920000  31.7940000  16.2050000
  15.2390000  33.3530000  17.4280000  16.0440000  32.6030000  16.8370000
  15.0820000  33.2930000  18.6450000
