%VERSION  VERSION_STAMP = V0001.000  DATE = 09/05/26  00:23:36                  
%FLAG TITLE                                                                     
%FORMAT(20a4)                                                                   
default_name                                                                    
%FLAG POINTERS                                                                  
%FORMAT(10I8)                                                                   
     165      10      84      84     187     115     372     344       0       0
     904      11      84     115     344      24      55      58      14       0
       0       0       0       0       0       0       0       0      21       0
       0
%FLAG ATOM_NAME                                                                 
%FORMAT(20a4)                                                                   
H1  CH3 H2  H3  C   O   N   H   CA  HA  CB  HB2 HB3 CG  HG  CD1 HD11HD12HD13CD2 
HD21HD22HD23C   O   N   H   CA  HA  CB  HB2 HB3 CG  HG  CD1 HD11HD12HD13CD2 HD21
HD22HD23C   O   N   H   CA  HA  CB  HB2 HB3 CG  CD1 HD1 CE1 HE1 CZ  HZ  CE2 HE2 
CD2 HD2 C   O   N   H   CA  HA2 HA3 C   O   N   H   CA  HA  CB  HB2 HB3 CG  CD1 
HD1 CE1 HE1 CZ  OH  HH  CE2 HE2 CD2 HD2 C   O   N   CD  HD2 HD3 CG  HG2 HG3 CB  
HB2 HB3 CA  HA  C   O   N   H   CA  HA  CB  HB  CG1 HG11HG12HG13CG2 HG21HG22HG23
C   O   N   H   CA  HA  CB  HB2 HB3 CG  CD1 HD1 CE1 HE1 CZ  OH  HH  CE2 HE2 CD2 
HD2 C   O   N   H   CA  HA  CB  HB  CG1 HG11HG12HG13CG2 HG21HG22HG23C   O   N   
H   C   H1  H2  H3  
%FLAG CHARGE                                                                    
%FORMAT(5E16.8)                                                                 
  2.04636429E+00 -6.67300626E+00  2.04636429E+00  2.04636429E+00  1.08823576E+01
 -1.03484442E+01 -7.57501011E+00  4.95464337E+00 -9.43915140E-01  1.68009606E+00
 -2.00809746E+00  8.32759110E-01  8.32759110E-01  6.43429413E+00 -6.57825030E-01
 -7.50940983E+00  1.82223000E+00  1.82223000E+00  1.82223000E+00 -7.50940983E+00
  1.82223000E+00  1.82223000E+00  1.82223000E+00  1.08841798E+01 -1.03484442E+01
 -7.57501011E+00  4.95464337E+00 -9.43915140E-01  1.68009606E+00 -2.00809746E+00
  8.32759110E-01  8.32759110E-01  6.43429413E+00 -6.57825030E-01 -7.50940983E+00
  1.82223000E+00  1.82223000E+00  1.82223000E+00 -7.50940983E+00  1.82223000E+00
  1.82223000E+00  1.82223000E+00  1.08841798E+01 -1.03484442E+01 -7.57501011E+00
  4.95464337E+00 -4.37335200E-02  1.78214094E+00 -6.25024890E-01  5.37557850E-01
  5.37557850E-01  2.15023140E-01 -2.28872088E+00  2.42356590E+00 -3.10507992E+00
  2.60578890E+00 -1.95343056E+00  2.36343231E+00 -3.10507992E+00  2.60578890E+00
 -2.28872088E+00  2.42356590E+00  1.08841798E+01 -1.03484442E+01 -7.57501011E+00
  4.95464337E+00 -4.59201960E-01  1.27191654E+00  1.27191654E+00  1.08841798E+01
 -1.03484442E+01 -7.57501011E+00  4.95464337E+00 -2.55112200E-02  1.59627348E+00
 -2.76978960E-01  5.37557850E-01  5.37557850E-01 -2.00445300E-02 -3.47317038E+00
  3.09596877E+00 -4.26584043E+00  3.01761288E+00  5.87851398E+00 -1.01662212E+01
  7.27434216E+00 -4.26584043E+00  3.01761288E+00 -3.47317038E+00  3.09596877E+00
  1.08841798E+01 -1.03484442E+01 -4.64304204E+00  3.49868160E-01  7.12491930E-01
  7.12491930E-01  3.44401470E-01  3.88134990E-01  3.88134990E-01 -1.27556100E-01
  4.61024190E-01  4.61024190E-01 -4.84713180E-01  1.16804943E+00  1.07438681E+01
 -1.04741780E+01 -7.57501011E+00  4.95464337E+00 -1.59445125E+00  1.76574087E+00
  5.43935655E+00 -5.41202310E-01 -5.81655816E+00  1.44138393E+00  1.44138393E+00
  1.44138393E+00 -5.81655816E+00  1.44138393E+00  1.44138393E+00  1.44138393E+00
  1.08841798E+01 -1.03484442E+01 -7.57501011E+00  4.95464337E+00 -2.55112200E-02
  1.59627348E+00 -2.76978960E-01  5.37557850E-01  5.37557850E-01 -2.00445300E-02
 -3.47317038E+00  3.09596877E+00 -4.26584043E+00  3.01761288E+00  5.87851398E+00
 -1.01662212E+01  7.27434216E+00 -4.26584043E+00  3.01761288E+00 -3.47317038E+00
  3.09596877E+00  1.08841798E+01 -1.03484442E+01 -7.57501011E+00  4.95464337E+00
 -1.59445125E+00  1.76574087E+00  5.43935655E+00 -5.41202310E-01 -5.81655816E+00
  1.44138393E+00  1.44138393E+00  1.44138393E+00 -5.81655816E+00  1.44138393E+00
  1.44138393E+00  1.44138393E+00  1.08841798E+01 -1.03484442E+01 -7.57501011E+00
  4.95464337E+00 -2.71512270E+00  1.77849648E+00  1.77849648E+00  1.77849648E+00
%FLAG ATOMIC_NUMBER                                                             
%FORMAT(10I8)                                                                   
       1       6       1       1       6       8       7       1       6       1
       6       1       1       6       1       6       1       1       1       6
       1       1       1       6       8       7       1       6       1       6
       1       1       6       1       6       1       1       1       6       1
       1       1       6       8       7       1       6       1       6       1
       1       6       6       1       6       1       6       1       6       1
       6       1       6       8       7       1       6       1       1       6
       8       7       1       6       1       6       1       1       6       6
       1       6       1       6       8       1       6       1       6       1
       6       8       7       6       1       1       6       1       1       6
       1       1       6       1       6       8       7       1       6       1
       6       1       6       1       1       1       6       1       1       1
       6       8       7       1       6       1       6       1       1       6
       6       1       6       1       6       8       1       6       1       6
       1       6       8       7       1       6       1       6       1       6
       1       1       1       6       1       1       1       6       8       7
       1       6       1       1       1
%FLAG MASS                                                                      
%FORMAT(5E16.8)                                                                 
  1.00800000E+00  1.20100000E+01  1.00800000E+00  1.00800000E+00  1.20100000E+01
  1.60000000E+01  1.40100000E+01  1.00800000E+00  1.20100000E+01  1.00800000E+00
  1.20100000E+01  1.00800000E+00  1.00800000E+00  1.20100000E+01  1.00800000E+00
  1.20100000E+01  1.00800000E+00  1.00800000E+00  1.00800000E+00  1.20100000E+01
  1.00800000E+00  1.00800000E+00  1.00800000E+00  1.20100000E+01  1.60000000E+01
  1.40100000E+01  1.00800000E+00  1.20100000E+01  1.00800000E+00  1.20100000E+01
  1.00800000E+00  1.00800000E+00  1.20100000E+01  1.00800000E+00  1.20100000E+01
  1.00800000E+00  1.00800000E+00  1.00800000E+00  1.20100000E+01  1.00800000E+00
  1.00800000E+00  1.00800000E+00  1.20100000E+01  1.60000000E+01  1.40100000E+01
  1.00800000E+00  1.20100000E+01  1.00800000E+00  1.20100000E+01  1.00800000E+00
  1.00800000E+00  1.20100000E+01  1.20100000E+01  1.00800000E+00  1.20100000E+01
  1.00800000E+00  1.20100000E+01  1.00800000E+00  1.20100000E+01  1.00800000E+00
  1.20100000E+01  1.00800000E+00  1.20100000E+01  1.60000000E+01  1.40100000E+01
  1.00800000E+00  1.20100000E+01  1.00800000E+00  1.00800000E+00  1.20100000E+01
  1.60000000E+01  1.40100000E+01  1.00800000E+00  1.20100000E+01  1.00800000E+00
  1.20100000E+01  1.00800000E+00  1.00800000E+00  1.20100000E+01  1.20100000E+01
  1.00800000E+00  1.20100000E+01  1.00800000E+00  1.20100000E+01  1.60000000E+01
  1.00800000E+00  1.20100000E+01  1.00800000E+00  1.20100000E+01  1.00800000E+00
  1.20100000E+01  1.60000000E+01  1.40100000E+01  1.20100000E+01  1.00800000E+00
  1.00800000E+00  1.20100000E+01  1.00800000E+00  1.00800000E+00  1.20100000E+01
  1.00800000E+00  1.00800000E+00  1.20100000E+01  1.00800000E+00  1.20100000E+01
  1.60000000E+01  1.40100000E+01  1.00800000E+00  1.20100000E+01  1.00800000E+00
  1.20100000E+01  1.00800000E+00  1.20100000E+01  1.00800000E+00  1.00800000E+00
  1.00800000E+00  1.20100000E+01  1.00800000E+00  1.00800000E+00  1.00800000E+00
  1.20100000E+01  1.60000000E+01  1.40100000E+01  1.00800000E+00  1.20100000E+01
  1.00800000E+00  1.20100000E+01  1.00800000E+00  1.00800000E+00  1.20100000E+01
  1.20100000E+01  1.00800000E+00  1.20100000E+01  1.00800000E+00  1.20100000E+01
  1.60000000E+01  1.00800000E+00  1.20100000E+01  1.00800000E+00  1.20100000E+01
  1.00800000E+00  1.20100000E+01  1.60000000E+01  1.40100000E+01  1.00800000E+00
  1.20100000E+01  1.00800000E+00  1.20100000E+01  1.00800000E+00  1.20100000E+01
  1.00800000E+00  1.00800000E+00  1.00800000E+00  1.20100000E+01  1.00800000E+00
  1.00800000E+00  1.00800000E+00  1.20100000E+01  1.60000000E+01  1.40100000E+01
  1.00800000E+00  1.20100000E+01  1.00800000E+00  1.00800000E+00  1.00800000E+00
%FLAG ATOM_TYPE_INDEX                                                           
%FORMAT(10I8)                                                                   
       1       2       1       1       3       4       5       6       2       7
       2       1       1       2       1       2       1       1       1       2
       1       1       1       3       4       5       6       2       7       2
       1       1       2       1       2       1       1       1       2       1
       1       1       3       4       5       6       2       7       2       1
       1       3       3       8       3       8       3       8       3       8
       3       8       3       4       5       6       2       7       7       3
       4       5       6       2       7       2       1       1       3       3
       8       3       8       3       9      10       3       8       3       8
       3       4       5       2       7       7       2       1       1       2
       1       1       2       7       3       4       5       6       2       7
       2       1       2       1       1       1       2       1       1       1
       3       4       5       6       2       7       2       1       1       3
       3       8       3       8       3       9      10       3       8       3
       8       3       4       5       6       2       7       2       1       2
       1       1       1       2       1       1       1       3       4       5
       6       2       7       7       7
%FLAG NUMBER_EXCLUDED_ATOMS                                                     
%FORMAT(10I8)                                                                   
       6       7       4       3       7       3      10       4      13       7
      15       6       5      10       8       7       3       2       1       3
       2       1       1       7       3      10       4      13       7      15
       6       5      10       8       7       3       2       1       3       2
       1       1       7       3      10       4      12       7      12       5
       4      10       8       4       6       3       5       3       3       2
       1       1       7       3       7       4       7       4       3       7
       3      10       4      12       7      12       5       4      10       8
       4       7       3       6       4       1       3       2       1       1
      10       3      14      11       6       5       8       5       4       7
       4       3       6       3       7       3      10       4      16       7
      12       9       8       3       2       1       4       2       1       1
       7       3      10       4      12       7      12       5       4      10
       8       4       7       3       6       4       1       3       2       1
       1       7       3      10       4      16       7      12       9       8
       3       2       1       4       2       1       1       7       3       5
       4       3       2       1       1
%FLAG NONBONDED_PARM_INDEX                                                      
%FORMAT(10I8)                                                                   
       1       2       4       7      11      16      22      29      37      46
       2       3       5       8      12      17      23      30      38      47
       4       5       6       9      13      18      24      31      39      48
       7       8       9      10      14      19      25      32      40      49
      11      12      13      14      15      20      26      33      41      50
      16      17      18      19      20      21      27      34      42      51
      22      23      24      25      26      27      28      35      43      52
      29      30      31      32      33      34      35      36      44      53
      37      38      39      40      41      42      43      44      45      54
      46      47      48      49      50      51      52      53      54      55
%FLAG RESIDUE_LABEL                                                             
%FORMAT(20a4)                                                                   
ACE LEU LEU PHE GLY TYR PRO VAL TYR VAL NME 
%FLAG RESIDUE_POINTER                                                           
%FORMAT(10I8)                                                                   
       1       7      26      45      65      72      93     107     123     144
     160
%FLAG BOND_FORCE_CONSTANT                                                       
%FORMAT(5E16.8)                                                                 
  5.70000000E+02  4.90000000E+02  3.40000000E+02  3.17000000E+02  3.40000000E+02
  3.10000000E+02  3.40000000E+02  3.10000000E+02  3.40000000E+02  3.10000000E+02
  3.17000000E+02  4.34000000E+02  3.37000000E+02  3.67000000E+02  4.69000000E+02
  3.17000000E+02  3.10000000E+02  5.53000000E+02  4.50000000E+02  4.69000000E+02
  3.10000000E+02  3.40000000E+02  3.37000000E+02  3.10000000E+02
%FLAG BOND_EQUIL_VALUE                                                          
%FORMAT(5E16.8)                                                                 
  1.22900000E+00  1.33500000E+00  1.09000000E+00  1.52200000E+00  1.09000000E+00
  1.52600000E+00  1.09000000E+00  1.52600000E+00  1.09000000E+00  1.52600000E+00
  1.52200000E+00  1.01000000E+00  1.44900000E+00  1.08000000E+00  1.40000000E+00
  1.51000000E+00  1.52600000E+00  9.60000000E-01  1.36400000E+00  1.40900000E+00
  1.52600000E+00  1.09000000E+00  1.44900000E+00  1.52600000E+00
%FLAG ANGLE_FORCE_CONSTANT                                                      
%FORMAT(5E16.8)                                                                 
  8.00000000E+01  5.00000000E+01  5.00000000E+01  5.00000000E+01  3.50000000E+01
  8.00000000E+01  7.00000000E+01  4.00000000E+01  5.00000000E+01  5.00000000E+01
  5.00000000E+01  3.50000000E+01  6.30000000E+01  5.00000000E+01  4.00000000E+01
  5.00000000E+01  5.00000000E+01  5.00000000E+01  4.00000000E+01  8.00000000E+01
  7.00000000E+01  5.00000000E+01  5.00000000E+01  8.00000000E+01  6.30000000E+01
  5.00000000E+01  6.30000000E+01  5.00000000E+01  6.30000000E+01  7.00000000E+01
  5.00000000E+01  5.00000000E+01  6.30000000E+01  8.00000000E+01  3.50000000E+01
  5.00000000E+01  7.00000000E+01  5.00000000E+01  5.00000000E+01  6.30000000E+01
  6.30000000E+01  5.00000000E+01  4.00000000E+01  5.00000000E+01  3.50000000E+01
  5.00000000E+01  4.00000000E+01  5.00000000E+01  8.00000000E+01  6.30000000E+01
  5.00000000E+01  5.00000000E+01  4.00000000E+01  8.00000000E+01  5.00000000E+01
%FLAG ANGLE_EQUIL_VALUE                                                         
%FORMAT(5E16.8)                                                                 
  2.14501057E+00  2.09439600E+00  2.12755727E+00  1.91113635E+00  1.91113635E+00
  2.10137732E+00  2.03505478E+00  1.91113635E+00  1.91113635E+00  1.91113635E+00
  1.91113635E+00  1.91113635E+00  1.93906163E+00  1.91113635E+00  1.91113635E+00
  1.91113635E+00  1.91113635E+00  1.91113635E+00  1.91113635E+00  2.10137732E+00
  2.03505478E+00  2.06018753E+00  1.91113635E+00  1.91462701E+00  1.92160833E+00
  2.09439600E+00  2.09439600E+00  1.91113635E+00  1.93906163E+00  2.09439600E+00
  1.91113635E+00  1.91113635E+00  1.98967620E+00  1.91462701E+00  1.91113635E+00
  2.12755727E+00  2.09439600E+00  1.97222290E+00  2.09439600E+00  2.09439600E+00
  2.09439600E+00  1.91113635E+00  1.91113635E+00  1.91113635E+00  1.91113635E+00
  2.05948940E+00  1.91113635E+00  1.91113635E+00  1.91462701E+00  1.93906163E+00
  1.91113635E+00  1.91113635E+00  1.91113635E+00  1.91462701E+00  2.06018753E+00
%FLAG DIHEDRAL_FORCE_CONSTANT                                                   
%FORMAT(5E16.8)                                                                 
  2.00000000E+00  2.50000000E+00  0.00000000E+00  1.80000000E+00  8.00000000E-01
  0.00000000E+00  0.00000000E+00  2.70000000E-01  4.20000000E-01  8.00000000E-01
  8.00000000E-02  1.60000000E-01  1.50000000E-01  7.06000000E-01  6.20000000E-01
  1.44000000E-01  1.90000000E-01  1.55555556E-01  2.00000000E-01  2.00000000E-01
  4.00000000E-01  3.79000000E-01  2.70000000E-02  1.42000000E-01  1.79000000E-01
  9.80000000E-02  2.59000000E-01  7.30000000E-02  4.50000000E-01  1.58000000E+00
  5.50000000E-01  3.62500000E+00  5.50000000E-02  4.69000000E-01  1.92000000E-01
  1.20000000E-02  6.90000000E-02  0.00000000E+00  4.80000000E-02  1.20000000E-02
  2.90000000E-01  7.00000000E-03  2.00000000E+00  8.83000000E-01  6.50000000E-02
  2.00000000E-01  2.50000000E-01  1.80000000E-01  4.06000000E-01  2.89000000E-01
  1.48000000E-01  1.12000000E-01  3.37000000E-01  2.16000000E-01  1.00000000E-03
  1.05000000E+01  1.10000000E+00  1.00000000E+00
%FLAG DIHEDRAL_PERIODICITY                                                      
%FORMAT(5E16.8)                                                                 
  1.00000000E+00  2.00000000E+00  2.00000000E+00  2.00000000E+00  3.00000000E+00
  4.00000000E+00  1.00000000E+00  2.00000000E+00  3.00000000E+00  1.00000000E+00
  3.00000000E+00  3.00000000E+00  3.00000000E+00  1.00000000E+00  2.00000000E+00
  3.00000000E+00  4.00000000E+00  3.00000000E+00  1.00000000E+00  2.00000000E+00
  3.00000000E+00  1.00000000E+00  2.00000000E+00  3.00000000E+00  4.00000000E+00
  1.00000000E+00  2.00000000E+00  4.00000000E+00  1.00000000E+00  2.00000000E+00
  3.00000000E+00  2.00000000E+00  1.00000000E+00  2.00000000E+00  3.00000000E+00
  4.00000000E+00  2.00000000E+00  3.00000000E+00  4.00000000E+00  1.00000000E+00
  2.00000000E+00  4.00000000E+00  2.00000000E+00  2.00000000E+00  4.00000000E+00
  1.00000000E+00  2.00000000E+00  3.00000000E+00  1.00000000E+00  2.00000000E+00
  3.00000000E+00  4.00000000E+00  1.00000000E+00  2.00000000E+00  4.00000000E+00
  2.00000000E+00  2.00000000E+00  2.00000000E+00
%FLAG DIHEDRAL_PHASE                                                            
%FORMAT(5E16.8)                                                                 
  0.00000000E+00  3.14159400E+00  0.00000000E+00  0.00000000E+00  0.00000000E+00
  0.00000000E+00  0.00000000E+00  0.00000000E+00  0.00000000E+00  0.00000000E+00
  3.14159400E+00  0.00000000E+00  0.00000000E+00  0.00000000E+00  3.14159400E+00
  0.00000000E+00  0.00000000E+00  0.00000000E+00  0.00000000E+00  0.00000000E+00
  0.00000000E+00  0.00000000E+00  3.14159400E+00  0.00000000E+00  0.00000000E+00
  0.00000000E+00  3.14159400E+00  0.00000000E+00  3.14159400E+00  3.14159400E+00
  3.14159400E+00  3.14159400E+00  0.00000000E+00  3.14159400E+00  0.00000000E+00
  3.14159400E+00  3.14159400E+00  0.00000000E+00  3.14159400E+00  3.14159400E+00
  3.14159400E+00  3.14159400E+00  0.00000000E+00  3.14159400E+00  0.00000000E+00
  3.14159400E+00  3.14159400E+00  0.00000000E+00  3.14159400E+00  3.14159400E+00
  0.00000000E+00  0.00000000E+00  0.00000000E+00  3.14159400E+00  3.14159400E+00
  3.14159400E+00  3.14159400E+00  3.14159400E+00
%FLAG SCEE_SCALE_FACTOR                                                         
%FORMAT(5E16.8)                                                                 
  1.20000000E+00  1.20000000E+00  1.20000000E+00  1.20000000E+00  1.20000000E+00
  1.20000000E+00  1.20000000E+00  1.20000000E+00  1.20000000E+00  1.20000000E+00
  1.20000000E+00  1.20000000E+00  1.20000000E+00  1.20000000E+00  1.20000000E+00
  1.20000000E+00  1.20000000E+00  1.20000000E+00  1.20000000E+00  1.20000000E+00
  1.20000000E+00  1.20000000E+00  1.20000000E+00  1.20000000E+00  1.20000000E+00
  1.20000000E+00  1.20000000E+00  1.20000000E+00  1.20000000E+00  1.20000000E+00
  1.20000000E+00  1.20000000E+00  1.20000000E+00  1.20000000E+00  1.20000000E+00
  1.20000000E+00  1.20000000E+00  1.20000000E+00  1.20000000E+00  1.20000000E+00
  1.20000000E+00  1.20000000E+00  1.20000000E+00  1.20000000E+00  1.20000000E+00
  1.20000000E+00  1.20000000E+00  1.20000000E+00  1.20000000E+00  1.20000000E+00
  1.20000000E+00  1.20000000E+00  1.20000000E+00  1.20000000E+00  1.20000000E+00
  0.00000000E+00  0.00000000E+00  0.00000000E+00
%FLAG SCNB_SCALE_FACTOR                                                         
%FORMAT(5E16.8)                                                                 
  2.00000000E+00  2.00000000E+00  2.00000000E+00  2.00000000E+00  2.00000000E+00
  2.00000000E+00  2.00000000E+00  2.00000000E+00  2.00000000E+00  2.00000000E+00
  2.00000000E+00  2.00000000E+00  2.00000000E+00  2.00000000E+00  2.00000000E+00
  2.00000000E+00  2.00000000E+00  2.00000000E+00  2.00000000E+00  2.00000000E+00
  2.00000000E+00  2.00000000E+00  2.00000000E+00  2.00000000E+00  2.00000000E+00
  2.00000000E+00  2.00000000E+00  2.00000000E+00  2.00000000E+00  2.00000000E+00
  2.00000000E+00  2.00000000E+00  2.00000000E+00  2.00000000E+00  2.00000000E+00
  2.00000000E+00  2.00000000E+00  2.00000000E+00  2.00000000E+00  2.00000000E+00
  2.00000000E+00  2.00000000E+00  2.00000000E+00  2.00000000E+00  2.00000000E+00
  2.00000000E+00  2.00000000E+00  2.00000000E+00  2.00000000E+00  2.00000000E+00
  2.00000000E+00  2.00000000E+00  2.00000000E+00  2.00000000E+00  2.00000000E+00
  0.00000000E+00  0.00000000E+00  0.00000000E+00
%FLAG SOLTY                                                                     
%FORMAT(5E16.8)                                                                 
  0.00000000E+00  0.00000000E+00  0.00000000E+00  0.00000000E+00  0.00000000E+00
  0.00000000E+00  0.00000000E+00  0.00000000E+00  0.00000000E+00  0.00000000E+00
  0.00000000E+00  0.00000000E+00  0.00000000E+00  0.00000000E+00
%FLAG LENNARD_JONES_ACOEF                                                       
%FORMAT(5E16.8)                                                                 
  7.51607703E+03  9.71708117E+04  1.04308023E+06  8.61541883E+04  9.24822270E+05
  8.19971662E+05  5.44261042E+04  6.47841731E+05  5.74393458E+05  3.79876399E+05
  8.96776989E+04  9.95480466E+05  8.82619071E+05  6.06829342E+05  9.44293233E+05
  1.07193646E+02  2.56678134E+03  2.27577561E+03  1.02595236E+03  2.12601181E+03
  1.39982777E-01  4.98586848E+03  6.78771368E+04  6.01816484E+04  3.69471530E+04
  6.20665997E+04  5.94667300E+01  3.25969625E+03  6.55825601E+03  8.59947003E+04
  7.62451550E+04  4.77908183E+04  7.91627154E+04  8.90987508E+01  4.33325458E+03
  5.71629601E+03  6.82786631E+04  7.91544157E+05  7.01803794E+05  4.71003287E+05
  7.44975864E+05  1.40467023E+03  4.66922514E+04  6.00750218E+04  5.81803229E+05
  0.00000000E+00  0.00000000E+00  0.00000000E+00  0.00000000E+00  0.00000000E+00
  0.00000000E+00  0.00000000E+00  0.00000000E+00  0.00000000E+00  0.00000000E+00
%FLAG LENNARD_JONES_BCOEF                                                       
%FORMAT(5E16.8)                                                                 
  2.17257828E+01  1.26919150E+02  6.75612247E+02  1.12529845E+02  5.99015525E+02
  5.31102864E+02  1.11805549E+02  6.26720080E+02  5.55666448E+02  5.64885984E+02
  1.36131731E+02  7.36907417E+02  6.53361429E+02  6.77220874E+02  8.01323529E+02
  2.59456373E+00  2.06278363E+01  1.82891803E+01  1.53505284E+01  2.09604198E+01
  9.37598976E-02  1.76949863E+01  1.06076943E+02  9.40505980E+01  9.21192136E+01
  1.13252061E+02  1.93248820E+00  1.43076527E+01  2.00642027E+01  1.18043746E+02
  1.04660679E+02  1.03580945E+02  1.26451907E+02  2.33864085E+00  1.63092814E+01
  1.85196588E+01  1.25287818E+02  6.93079947E+02  6.14502845E+02  6.29300710E+02
  7.50714425E+02  1.79702257E+01  1.03606917E+02  1.16187983E+02  6.99746810E+02
  0.00000000E+00  0.00000000E+00  0.00000000E+00  0.00000000E+00  0.00000000E+00
  0.00000000E+00  0.00000000E+00  0.00000000E+00  0.00000000E+00  0.00000000E+00
%FLAG BONDS_INC_HYDROGEN                                                        
%FORMAT(10I8)                                                                   
       3       6       3       3       9       3       0       3       3      57
      60       3      57      63       3      57      66       3      45      48
       3      45      51       3      45      54       3      39      42       5
      30      33       7      30      36       7      24      27       9      18
      21      12     114     117       3     114     120       3     114     123
       3     102     105       3     102     108       3     102     111       3
      96      99       5      87      90       7      87      93       7      81
      84       9      75      78      12     180     183      14     174     177
      14     168     171      14     162     165      14     156     159      14
     144     147       3     144     150       3     138     141       9     132
     135      12     198     201       9     198     204       9     192     195
      12     264     267      14     258     261      14     252     255      18
     243     246      14     237     240      14     225     228       3     225
     231       3     219     222       9     213     216      12     306     309
       9     297     300       3     297     303       3     288     291       3
     288     294       3     279     282      22     279     285      22     348
     351       3     348     354       3     348     357       3     336     339
       3     336     342       3     336     345       3     330     333       5
     324     327       9     318     321      12     417     420      14     411
     414      14     405     408      18     396     399      14     390     393
      14     378     381       3     378     384       3     372     375       9
     366     369      12     459     462       3     459     465       3     459
     468       3     447     450       3     447     453       3     447     456
       3     441     444       5     435     438       9     429     432      12
     483     486      22     483     489      22     483     492      22     477
     480      12
%FLAG BONDS_WITHOUT_HYDROGEN                                                    
%FORMAT(10I8)                                                                   
      12      15       1      12      18       2       3      12       4      69
      72       1      69      75       2      39      45       6      39      57
       6      30      39       8      24      30      10      24      69      11
      18      24      13     126     129       1     126     132       2      96
     102       6      96     114       6      87      96       8      81      87
      10      81     126      11      75      81      13     186     189       1
     186     192       2     174     180      15     168     174      15     162
     168      15     156     162      15     153     156      15     153     180
      15     144     153      16     138     144      17     138     186      11
     132     138      13     207     210       1     207     213       2     198
     207      11     192     198      13     270     273       1     270     276
       2     258     264      15     249     252      19     249     258      20
     243     249      20     237     243      15     234     237      15     234
     264      15     225     234      16     219     225      17     219     270
      11     213     219      13     312     315       1     312     318       2
     306     312      11     297     306      17     288     297      21     279
     288      21     276     279      23     276     306      13     360     363
       1     360     366       2     330     336       6     330     348       6
     324     330      24     324     360      11     318     324      13     423
     426       1     423     429       2     411     417      15     402     405
      19     402     411      20     396     402      20     390     396      15
     387     390      15     387     417      15     378     387      16     372
     378      17     372     423      11     366     372      13     471     474
       1     471     477       2     441     447       6     441     459       6
     435     441      24     435     471      11     429     435      13     477
     483      23
%FLAG ANGLES_INC_HYDROGEN                                                       
%FORMAT(10I8)                                                                   
      12      18      21       2       9       3      12       4       6       3
       9       5       6       3      12       4       0       3       6       5
       0       3       9       5       0       3      12       4      69      75
      78       2      63      57      66       5      60      57      63       5
      60      57      66       5      51      45      54       5      48      45
      51       5      48      45      54       5      42      39      45       9
      42      39      57       9      39      45      48      10      39      45
      51      10      39      45      54      10      39      57      60      10
      39      57      63      10      39      57      66      10      36      30
      39      11      33      30      36      12      33      30      39      11
      30      39      42      14      27      24      30      16      27      24
      69      17      24      30      33      18      24      30      36      18
      21      18      24      22      18      24      27      23     126     132
     135       2     120     114     123       5     117     114     120       5
     117     114     123       5     108     102     111       5     105     102
     108       5     105     102     111       5      99      96     102       9
      99      96     114       9      96     102     105      10      96     102
     108      10      96     102     111      10      96     114     117      10
      96     114     120      10      96     114     123      10      93      87
      96      11      90      87      93      12      90      87      96      11
      87      96      99      14      84      81      87      16      84      81
     126      17      81      87      90      18      81      87      93      18
      78      75      81      22      75      81      84      23     186     192
     195       2     177     174     180      26     174     180     183      26
     171     168     174      26     168     174     177      26     165     162
     168      26     162     168     171      26     159     156     162      26
     156     162     165      26     153     156     159      26     153     180
     183      26     150     144     153      28     147     144     150       5
     147     144     153      28     141     138     144      31     141     138
     186      17     138     144     147      32     138     144     150      32
     135     132     138      22     132     138     141      23     207     213
     216       2     204     198     207      17     201     198     204      35
     201     198     207      17     195     192     198      22     192     198
     201      23     192     198     204      23     261     258     264      26
     258     264     267      26     249     252     255      38     249     258
     261      39     246     243     249      39     240     237     243      26
     237     243     246      26     234     237     240      26     234     264
     267      26     231     225     234      28     228     225     231       5
     228     225     234      28     222     219     225      31     222     219
     270      17     219     225     228      32     219     225     231      32
     216     213     219      22     213     219     222      23     312     318
     321       2     309     306     312      17     303     297     306      32
     300     297     303       5     300     297     306      32     297     306
     309      31     294     288     297      42     291     288     294       5
     291     288     297      42     288     297     300      42     288     297
     303      42     285     279     288      44     282     279     285      45
     282     279     288      44     279     288     291      42     279     288
     294      42     276     279     282      48     276     279     285      48
     276     306     309      23     360     366     369       2     354     348
     357       5     351     348     354       5     351     348     357       5
     342     336     345       5     339     336     342       5     339     336
     345       5     333     330     336       9     333     330     348       9
     330     336     339      10     330     336     342      10     330     336
     345      10     330     348     351      10     330     348     354      10
     330     348     357      10     327     324     330      51     327     324
     360      17     324     330     333      52     321     318     324      22
     318     324     327      23     423     429     432       2     414     411
     417      26     411     417     420      26     402     405     408      38
     402     411     414      39     399     396     402      39     393     390
     396      26     390     396     399      26     387     390     393      26
     387     417     420      26     384     378     387      28     381     378
     384       5     381     378     387      28     375     372     378      31
     375     372     423      17     372     378     381      32     372     378
     384      32     369     366     372      22     366     372     375      23
     471     477     480       2     465     459     468       5     462     459
     465       5     462     459     468       5     453     447     456       5
     450     447     453       5     450     447     456       5     444     441
     447       9     444     441     459       9     441     447     450      10
     441     447     453      10     441     447     456      10     441     459
     462      10     441     459     465      10     441     459     468      10
     438     435     441      51     438     435     471      17     435     441
     444      52     432     429     435      22     429     435     438      23
     489     483     492      45     486     483     489      45     486     483
     492      45     480     477     483      55     477     483     486      48
     477     483     489      48     477     483     492      48
%FLAG ANGLES_WITHOUT_HYDROGEN                                                   
%FORMAT(10I8)                                                                   
      15      12      18       1      12      18      24       3       3      12
      15       6       3      12      18       7      72      69      75       1
      69      75      81       3      45      39      57       8      30      24
      69      13      30      39      45      15      30      39      57      15
      24      30      39      19      24      69      72      20      24      69
      75      21      18      24      30      24      18      24      69      25
     129     126     132       1     126     132     138       3     102      96
     114       8      87      81     126      13      87      96     102      15
      87      96     114      15      81      87      96      19      81     126
     129      20      81     126     132      21      75      81      87      24
      75      81     126      25     189     186     192       1     186     192
     198       3     168     174     180      27     162     168     174      27
     156     153     180      27     156     162     168      27     153     156
     162      27     153     180     174      27     144     138     186      29
     144     153     156      30     144     153     180      30     138     144
     153      33     138     186     189      20     138     186     192      21
     132     138     144      34     132     138     186      25     210     207
     213       1     207     213     219       3     198     207     210      20
     198     207     213      21     192     198     207      25     273     270
     276       1     270     276     279      36     270     276     306       3
     252     249     258      37     249     258     264      40     243     249
     252      37     243     249     258      41     237     234     264      27
     237     243     249      40     234     237     243      27     234     264
     258      27     225     219     270      29     225     234     237      30
     225     234     264      30     219     225     234      33     219     270
     273      20     219     270     276      21     213     219     225      34
     213     219     270      25     315     312     318       1     312     318
     324       3     306     312     315      20     306     312     318      21
     297     306     312      29     288     297     306      43     279     276
     306      46     279     288     297      47     276     279     288      49
     276     306     297      34     276     306     312      25     363     360
     366       1     360     366     372       3     336     330     348       8
     330     324     360      50     324     330     336      53     324     330
     348      53     324     360     363      20     324     360     366      21
     318     324     330      54     318     324     360      25     426     423
     429       1     423     429     435       3     405     402     411      37
     402     411     417      40     396     402     405      37     396     402
     411      41     390     387     417      27     390     396     402      40
     387     390     396      27     387     417     411      27     378     372
     423      29     378     387     390      30     378     387     417      30
     372     378     387      33     372     423     426      20     372     423
     429      21     366     372     378      34     366     372     423      25
     474     471     477       1     471     477     483      36     447     441
     459       8     441     435     471      50     435     441     447      53
     435     441     459      53     435     471     474      20     435     471
     477      21     429     435     441      54     429     435     471      25
%FLAG DIHEDRALS_INC_HYDROGEN                                                    
%FORMAT(10I8)                                                                   
      15      12      18      21       1      15      12     -18      21       2
      12      18      24      27       3       9       3      12      15      10
       9       3     -12      15       3       9       3     -12      15      11
       9       3      12      18       3       6       3      12      15      10
       6       3     -12      15       3       6       3     -12      15      11
       6       3      12      18       3       3      12      18      21       2
       0       3      12      15      10       0       3     -12      15       3
       0       3     -12      15      11       0       3      12      18       3
      72      69      75      78       1      72      69     -75      78       2
      69      75      81      84       3      54      45      39      57      12
      51      45      39      57      12      48      45      39      57      12
      45      39      57      60      12      45      39      57      63      12
      45      39      57      66      12      42      39      45      48      13
      42      39      45      51      13      42      39      45      54      13
      42      39      57      60      13      42      39      57      63      13
      42      39      57      66      13      36      30      24      69      18
      36      30      39      42      13      36      30      39      45      12
      36      30      39      57      12      33      30      24      69      18
      33      30      39      42      13      33      30      39      45      12
      33      30      39      57      12      30      39      45      48      12
      30      39      45      51      12      30      39      45      54      12
      30      39      57      60      12      30      39      57      63      12
      30      39      57      66      12      27      24      30      33      18
      27      24      30      36      18      27      24      30      39      18
      27      24      69      72      10      27      24     -69      72       3
      27      24     -69      72      11      27      24      69      75       3
      24      30      39      42      12      24      69      75      78       2
      21      18      24      27       3      21      18      24      30       3
      21      18      24      69       3      18      24      30      33      18
      18      24      30      36      18     129     126     132     135       1
     129     126    -132     135       2     126     132     138     141       3
     111     102      96     114      12     108     102      96     114      12
     105     102      96     114      12     102      96     114     117      12
     102      96     114     120      12     102      96     114     123      12
      99      96     102     105      13      99      96     102     108      13
      99      96     102     111      13      99      96     114     117      13
      99      96     114     120      13      99      96     114     123      13
      93      87      81     126      18      93      87      96      99      13
      93      87      96     102      12      93      87      96     114      12
      90      87      81     126      18      90      87      96      99      13
      90      87      96     102      12      90      87      96     114      12
      87      96     102     105      12      87      96     102     108      12
      87      96     102     111      12      87      96     114     117      12
      87      96     114     120      12      87      96     114     123      12
      84      81      87      90      18      84      81      87      93      18
      84      81      87      96      18      84      81     126     129      10
      84      81    -126     129       3      84      81    -126     129      11
      84      81     126     132       3      81      87      96      99      12
      81     126     132     135       2      78      75      81      84       3
      78      75      81      87       3      78      75      81     126       3
      75      81      87      90      18      75      81      87      93      18
     189     186     192     195       1     189     186    -192     195       2
     186     192     198     201       3     186     192     198     204       3
     177     174     180     183      32     171     168     174     177      32
     171     168     174     180      32     168     174     180     183      32
     165     162     168     171      32     165     162     168     174      32
     162     168     174     177      32     159     156     153     180      32
     159     156     162     165      32     159     156     162     168      32
     156     153     180     183      32     156     162     168     171      32
     153     156     162     165      32     153     180     174     177      32
     150     144     138     186      18     150     144     153     156       3
     150     144     153     180       3     147     144     138     186      18
     147     144     153     156       3     147     144     153     180       3
     144     153     156     159      32     144     153     180     183      32
     141     138     144     147      18     141     138     144     150      18
     141     138     144     153      18     141     138     186     189      10
     141     138    -186     189       3     141     138    -186     189      11
     141     138     186     192       3     138     186     192     195       2
     135     132     138     141       3     135     132     138     144       3
     135     132     138     186       3     132     138     144     147      18
     132     138     144     150      18     210     207     213     216       1
     210     207    -213     216       2     207     213     219     222       3
     204     198     207     210      10     204     198    -207     210       3
     204     198    -207     210      11     204     198     207     213       3
     201     198     207     210      10     201     198    -207     210       3
     201     198    -207     210      11     201     198     207     213       3
     198     207     213     216       2     195     192     198     201       3
     195     192     198     204       3     195     192     198     207       3
     270     276     279     282       3     270     276     279     285       3
     270     276     306     309       3     261     258     264     267      32
     255     252     249     258       7     255     252    -249     258      44
     255     252    -249     258      38     255     252    -249     258      45
     252     249     258     261      32     249     258     264     267      32
     246     243     249     252      32     246     243     249     258      32
     243     249     252     255       7     243     249    -252     255      44
     243     249    -252     255      38     243     249    -252     255      45
     243     249     258     261      32     240     237     234     264      32
     240     237     243     246      32     240     237     243     249      32
     237     234     264     267      32     234     237     243     246      32
     234     264     258     261      32     231     225     219     270      18
     231     225     234     237       3     231     225     234     264       3
     228     225     219     270      18     228     225     234     237       3
     228     225     234     264       3     225     234     237     240      32
     225     234     264     267      32     222     219     225     228      18
     222     219     225     231      18     222     219     225     234      18
     222     219     270     273      10     222     219    -270     273       3
     222     219    -270     273      11     222     219     270     276       3
     216     213     219     222       3     216     213     219     225       3
     216     213     219     270       3     213     219     225     228      18
     213     219     225     231      18     315     312     318     321       1
     315     312    -318     321       2     312     318     324     327       3
     309     306     312     315      10     309     306    -312     315       3
     309     306    -312     315      11     309     306     312     318       3
     306     312     318     321       2     303     297     306     309      18
     303     297     306     312      18     300     297     306     309      18
     300     297     306     312      18     294     288     297     300      13
     294     288     297     303      13     294     288     297     306      12
     291     288     297     300      13     291     288     297     303      13
     291     288     297     306      12     288     297     306     309      18
     285     279     276     306       3     285     279     288     291      18
     285     279     288     294      18     285     279     288     297      18
     282     279     276     306       3     282     279     288     291      18
     282     279     288     294      18     282     279     288     297      18
     279     276     306     309       3     279     288     297     300      12
     279     288     297     303      12     276     279     288     291      18
     276     279     288     294      18     276     306     297     300      18
     276     306     297     303      18     363     360     366     369       1
     363     360    -366     369       2     360     366     372     375       3
     345     336     330     348      12     342     336     330     348      12
     339     336     330     348      12     336     330     348     351      12
     336     330     348     354      12     336     330     348     357      12
     333     330     324     360      18     333     330     336     339      13
     333     330     336     342      13     333     330     336     345      13
     333     330     348     351      13     333     330     348     354      13
     333     330     348     357      13     327     324     330     333      18
     327     324     330     336      18     327     324     330     348      18
     327     324     360     363      10     327     324    -360     363       3
     327     324    -360     363      11     327     324     360     366       3
     324     330     336     339      12     324     330     336     342      12
     324     330     336     345      12     324     330     348     351      12
     324     330     348     354      12     324     330     348     357      12
     324     360     366     369       2     321     318     324     327       3
     321     318     324     330       3     321     318     324     360       3
     318     324     330     333      18     426     423     429     432       1
     426     423    -429     432       2     423     429     435     438       3
     414     411     417     420      32     408     405     402     411       7
     408     405    -402     411      44     408     405    -402     411      38
     408     405    -402     411      45     405     402     411     414      32
     402     411     417     420      32     399     396     402     405      32
     399     396     402     411      32     396     402     405     408       7
     396     402    -405     408      44     396     402    -405     408      38
     396     402    -405     408      45     396     402     411     414      32
     393     390     387     417      32     393     390     396     399      32
     393     390     396     402      32     390     387     417     420      32
     387     390     396     399      32     387     417     411     414      32
     384     378     372     423      18     384     378     387     390       3
     384     378     387     417       3     381     378     372     423      18
     381     378     387     390       3     381     378     387     417       3
     378     387     390     393      32     378     387     417     420      32
     375     372     378     381      18     375     372     378     384      18
     375     372     378     387      18     375     372     423     426      10
     375     372    -423     426       3     375     372    -423     426      11
     375     372     423     429       3     372     423     429     432       2
     369     366     372     375       3     369     366     372     378       3
     369     366     372     423       3     366     372     378     381      18
     366     372     378     384      18     474     471     477     480       1
     474     471    -477     480       2     471     477     483     486       3
     471     477     483     489       3     471     477     483     492       3
     456     447     441     459      12     453     447     441     459      12
     450     447     441     459      12     447     441     459     462      12
     447     441     459     465      12     447     441     459     468      12
     444     441     435     471      18     444     441     447     450      13
     444     441     447     453      13     444     441     447     456      13
     444     441     459     462      13     444     441     459     465      13
     444     441     459     468      13     438     435     441     444      18
     438     435     441     447      18     438     435     441     459      18
     438     435     471     474      10     438     435    -471     474       3
     438     435    -471     474      11     438     435     471     477       3
     435     441     447     450      12     435     441     447     453      12
     435     441     447     456      12     435     441     459     462      12
     435     441     459     465      12     435     441     459     468      12
     435     471     477     480       2     432     429     435     438       3
     432     429     435     441       3     432     429     435     471       3
     429     435     441     444      18     480     477     483     486       3
     480     477     483     489       3     480     477     483     492       3
      12      24     -18     -21      57      69      81     -75     -78      57
     153     174    -180    -183      57     168     180    -174    -177      57
     162     174    -168    -171      57     156     168    -162    -165      57
     153     162    -156    -159      57     126     138    -132    -135      57
     186     198    -192    -195      57     234     258    -264    -267      57
     249     264    -258    -261      57     237     249    -243    -246      57
     234     243    -237    -240      57     207     219    -213    -216      57
     312     324    -318    -321      57     387     411    -417    -420      57
     402     417    -411    -414      57     390     402    -396    -399      57
     387     396    -390    -393      57     360     372    -366    -369      57
     423     435    -429    -432      57     471     483    -477    -480      57
%FLAG DIHEDRALS_WITHOUT_HYDROGEN                                                
%FORMAT(10I8)                                                                   
      15      12      18      24       2      12      18      24      30       1
      12      18     -24      30       4      12      18     -24      30       5
      12      18     -24      30       6      12      18      24      69       7
      12      18     -24      69       8      12      18     -24      69       9
      12      18     -24      69       6       3      12      18      24       2
      72      69      75      81       2      69      75      81      87       1
      69      75     -81      87       4      69      75     -81      87       5
      69      75     -81      87       6      69      75      81     126       7
      69      75     -81     126       8      69      75     -81     126       9
      69      75     -81     126       6      39      30      24      69      14
      39      30     -24      69      15      39      30     -24      69      16
      39      30     -24      69      17      30      24      69      72       3
      30      24      69      75      19      30      24     -69      75      20
      30      24     -69      75      21      30      24     -69      75       6
      24      30      39      45      22      24      30     -39      45      23
      24      30     -39      45      24      24      30     -39      45      25
      24      30      39      57      22      24      30     -39      57      23
      24      30     -39      57      24      24      30     -39      57      25
      24      69      75      81       2      18      24      30      39      26
      18      24     -30      39      27      18      24     -30      39      16
      18      24     -30      39      28      18      24      69      72       3
      18      24      69      75      29      18      24     -69      75      30
      18      24     -69      75      31      18      24     -69      75       6
     129     126     132     138       2     126     132     138     144       1
     126     132    -138     144       4     126     132    -138     144       5
     126     132    -138     144       6     126     132     138     186       7
     126     132    -138     186       8     126     132    -138     186       9
     126     132    -138     186       6      96      87      81     126      14
      96      87     -81     126      15      96      87     -81     126      16
      96      87     -81     126      17      87      81     126     129       3
      87      81     126     132      19      87      81    -126     132      20
      87      81    -126     132      21      87      81    -126     132       6
      81      87      96     102      22      81      87     -96     102      23
      81      87     -96     102      24      81      87     -96     102      25
      81      87      96     114      22      81      87     -96     114      23
      81      87     -96     114      24      81      87     -96     114      25
      81     126     132     138       2      75      81      87      96      26
      75      81     -87      96      27      75      81     -87      96      16
      75      81     -87      96      28      75      81     126     129       3
      75      81     126     132      29      75      81    -126     132      30
      75      81    -126     132      31      75      81    -126     132       6
     189     186     192     198       2     186     192     198     207       7
     186     192    -198     207       8     186     192    -198     207       9
     186     192    -198     207       6     162     156     153     180      32
     162     168    -174     180      32     156     153     180     174      32
     156     162    -168     174      32     153     144     138     186      33
     153     144    -138     186      34     153     144    -138     186      35
     153     144    -138     186      36     153     156     162     168      32
     153     180    -174     168      32     144     138     186     189       3
     144     138     186     192      19     144     138    -186     192      20
     144     138    -186     192      21     144     138    -186     192       6
     144     153     156     162      32     144     153     180     174      32
     138     144     153     156       7     138     144    -153     156      37
     138     144    -153     156      38     138     144    -153     156      39
     138     144     153     180       7     138     144    -153     180      37
     138     144    -153     180      38     138     144    -153     180      39
     138     186     192     198       2     132     138     144     153      40
     132     138    -144     153      41     132     138    -144     153      35
     132     138    -144     153      42     132     138     186     189       3
     132     138     186     192      29     132     138    -186     192      30
     132     138    -186     192      31     132     138    -186     192       6
     210     207     213     219       2     207     213     219     225       1
     207     213    -219     225       4     207     213    -219     225       5
     207     213    -219     225       6     207     213     219     270       7
     207     213    -219     270       8     207     213    -219     270       9
     207     213    -219     270       6     198     207     213     219       2
     192     198     207     210       3     192     198     207     213      29
     192     198    -207     213      30     192     198    -207     213      31
     192     198    -207     213       6     273     270     276     279       2
     273     270     276     306       2     270     276     279     288       1
     270     276    -279     288      43     270     276    -279     288      21
     270     276    -279     288       6     270     276     306     297       1
     270     276    -306     297       4     270     276    -306     297       5
     270     276    -306     297       6     270     276     306     312       7
     270     276    -306     312       8     270     276    -306     312       9
     270     276    -306     312       6     252     249     258     264      32
     243     237     234     264      32     243     249    -258     264      32
     237     234     264     258      32     237     243     249     252      32
     237     243    -249     258      32     234     225     219     270      33
     234     225    -219     270      34     234     225    -219     270      35
     234     225    -219     270      36     234     237     243     249      32
     234     264    -258     249      32     225     219     270     273       3
     225     219     270     276      19     225     219    -270     276      20
     225     219    -270     276      21     225     219    -270     276       6
     225     234     237     243      32     225     234     264     258      32
     219     225     234     237       7     219     225    -234     237      37
     219     225    -234     237      38     219     225    -234     237      39
     219     225     234     264       7     219     225    -234     264      37
     219     225    -234     264      38     219     225    -234     264      39
     219     270     276     279       2     219     270     276     306       2
     213     219     225     234      40     213     219    -225     234      41
     213     219    -225     234      35     213     219    -225     234      42
     213     219     270     273       3     213     219     270     276      29
     213     219    -270     276      30     213     219    -270     276      31
     213     219    -270     276       6     315     312     318     324       2
     312     318     324     330       1     312     318    -324     330       4
     312     318    -324     330       5     312     318    -324     330       6
     312     318     324     360       7     312     318    -324     360       8
     312     318    -324     360       9     312     318    -324     360       6
     306     312     318     324       2     297     306     312     315       3
     297     306     312     318      19     297     306    -312     318      20
     297     306    -312     318      21     297     306    -312     318       6
     288     279    -276     306       3     288     297     306     312      18
     279     276    -306     297       3     279     276     306     312       3
     279     288    -297     306      46     279     288    -297     306      47
     279     288    -297     306      48     276     279    -288     297      18
     276     306    -297     288      18     276     306     312     315       3
     276     306     312     318      29     276     306    -312     318      30
     276     306    -312     318      31     276     306    -312     318       6
     363     360     366     372       2     360     366     372     378       1
     360     366    -372     378       4     360     366    -372     378       5
     360     366    -372     378       6     360     366     372     423       7
     360     366    -372     423       8     360     366    -372     423       9
     360     366    -372     423       6     348     330     324     360      49
     348     330    -324     360      50     348     330    -324     360      51
     348     330    -324     360      52     336     330     324     360      49
     336     330    -324     360      50     336     330    -324     360      51
     336     330    -324     360      52     330     324     360     363       3
     330     324     360     366      19     330     324    -360     366      20
     330     324    -360     366      21     330     324    -360     366       6
     324     360     366     372       2     318     324     330     336      53
     318     324    -330     336      54     318     324    -330     336      51
     318     324    -330     336      55     318     324     330     348      53
     318     324    -330     348      54     318     324    -330     348      51
     318     324    -330     348      55     318     324     360     363       3
     318     324     360     366      29     318     324    -360     366      30
     318     324    -360     366      31     318     324    -360     366       6
     426     423     429     435       2     423     429     435     441       1
     423     429    -435     441       4     423     429    -435     441       5
     423     429    -435     441       6     423     429     435     471       7
     423     429    -435     471       8     423     429    -435     471       9
     423     429    -435     471       6     405     402     411     417      32
     396     390     387     417      32     396     402    -411     417      32
     390     387     417     411      32     390     396     402     405      32
     390     396    -402     411      32     387     378     372     423      33
     387     378    -372     423      34     387     378    -372     423      35
     387     378    -372     423      36     387     390     396     402      32
     387     417    -411     402      32     378     372     423     426       3
     378     372     423     429      19     378     372    -423     429      20
     378     372    -423     429      21     378     372    -423     429       6
     378     387     390     396      32     378     387     417     411      32
     372     378     387     390       7     372     378    -387     390      37
     372     378    -387     390      38     372     378    -387     390      39
     372     378     387     417       7     372     378    -387     417      37
     372     378    -387     417      38     372     378    -387     417      39
     372     423     429     435       2     366     372     378     387      40
     366     372    -378     387      41     366     372    -378     387      35
     366     372    -378     387      42     366     372     423     426       3
     366     372     423     429      29     366     372    -423     429      30
     366     372    -423     429      31     366     372    -423     429       6
     474     471     477     483       2     459     441     435     471      49
     459     441    -435     471      50     459     441    -435     471      51
     459     441    -435     471      52     447     441     435     471      49
     447     441    -435     471      50     447     441    -435     471      51
     447     441    -435     471      52     441     435     471     474       3
     441     435     471     477      19     441     435    -471     477      20
     441     435    -471     477      21     441     435    -471     477       6
     435     471     477     483       2     429     435     441     447      53
     429     435    -441     447      54     429     435    -441     447      51
     429     435    -441     447      55     429     435     441     459      53
     429     435    -441     459      54     429     435    -441     459      51
     429     435    -441     459      55     429     435     471     474       3
     429     435     471     477      29     429     435    -471     477      30
     429     435    -471     477      31     429     435    -471     477       6
       3      18     -12     -15      56      24      75     -69     -72      56
      81     132    -126    -129      56     138     192    -186    -189      56
     156     180    -153    -144      57     198     213    -207    -210      56
     219     276    -270    -273      56     243     258    -249    -252      57
     237     264    -234    -225      57     306     318    -312    -315      56
     270     279    -276    -306      58     324     366    -360    -363      56
     372     429    -423    -426      56     396     411    -402    -405      57
     390     417    -387    -378      57     435     477    -471    -474      56
%FLAG EXCLUDED_ATOMS_LIST                                                       
%FORMAT(10I8)                                                                   
       2       3       4       5       6       7       3       4       5       6
       7       8       9       4       5       6       7       5       6       7
       6       7       8       9      10      11      24       7       8       9
       8       9      10      11      12      13      14      24      25      26
       9      10      11      24      10      11      12      13      14      15
      16      20      24      25      26      27      28      11      12      13
      14      24      25      26      12      13      14      15      16      17
      18      19      20      21      22      23      24      25      26      13
      14      15      16      20      24      14      15      16      20      24
      15      16      17      18      19      20      21      22      23      24
      16      17      18      19      20      21      22      23      17      18
      19      20      21      22      23      18      19      20      19      20
      20      21      22      23      22      23      23       0      25      26
      27      28      29      30      43      26      27      28      27      28
      29      30      31      32      33      43      44      45      28      29
      30      43      29      30      31      32      33      34      35      39
      43      44      45      46      47      30      31      32      33      43
      44      45      31      32      33      34      35      36      37      38
      39      40      41      42      43      44      45      32      33      34
      35      39      43      33      34      35      39      43      34      35
      36      37      38      39      40      41      42      43      35      36
      37      38      39      40      41      42      36      37      38      39
      40      41      42      37      38      39      38      39      39      40
      41      42      41      42      42       0      44      45      46      47
      48      49      63      45      46      47      46      47      48      49
      50      51      52      63      64      65      47      48      49      63
      48      49      50      51      52      53      61      63      64      65
      66      67      49      50      51      52      63      64      65      50
      51      52      53      54      55      59      61      62      63      64
      65      51      52      53      61      63      52      53      61      63
      53      54      55      56      57      59      60      61      62      63
      54      55      56      57      58      59      61      62      55      56
      57      61      56      57      58      59      60      61      57      58
      59      58      59      60      61      62      59      60      61      60
      61      62      61      62      62       0      64      65      66      67
      68      69      70      65      66      67      66      67      68      69
      70      71      72      67      68      69      70      68      69      70
      71      72      73      74      69      70      71      72      70      71
      72      71      72      73      74      75      76      91      72      73
      74      73      74      75      76      77      78      79      91      92
      93      74      75      76      91      75      76      77      78      79
      80      89      91      92      93      94     103      76      77      78
      79      91      92      93      77      78      79      80      81      82
      87      89      90      91      92      93      78      79      80      89
      91      79      80      89      91      80      81      82      83      84
      87      88      89      90      91      81      82      83      84      85
      87      89      90      82      83      84      89      83      84      85
      86      87      88      89      84      85      87      85      86      87
      88      89      90      86      87      88      89      87      88      89
      90      89      90      90       0      92      93      94      95      96
      97     100     103     104     105      93      94     103      94      95
      96      97      98      99     100     101     102     103     104     105
     106     107      95      96      97      98      99     100     101     102
     103     104     105      96      97      98      99     100     103      97
      98      99     100     103      98      99     100     101     102     103
     104     105      99     100     101     102     103     100     101     102
     103     101     102     103     104     105     106     107     102     103
     104     105     103     104     105     104     105     106     107     108
     109     105     106     107     106     107     108     109     110     111
     121     107     108     109     108     109     110     111     112     113
     117     121     122     123     109     110     111     121     110     111
     112     113     114     115     116     117     118     119     120     121
     122     123     124     125     111     112     113     117     121     122
     123     112     113     114     115     116     117     118     119     120
     121     122     123     113     114     115     116     117     118     119
     120     121     114     115     116     117     118     119     120     121
     115     116     117     116     117     117     118     119     120     121
     119     120     120       0     122     123     124     125     126     127
     142     123     124     125     124     125     126     127     128     129
     130     142     143     144     125     126     127     142     126     127
     128     129     130     131     140     142     143     144     145     146
     127     128     129     130     142     143     144     128     129     130
     131     132     133     138     140     141     142     143     144     129
     130     131     140     142     130     131     140     142     131     132
     133     134     135     138     139     140     141     142     132     133
     134     135     136     138     140     141     133     134     135     140
     134     135     136     137     138     139     140     135     136     138
     136     137     138     139     140     141     137     138     139     140
     138     139     140     141     140     141     141       0     143     144
     145     146     147     148     158     144     145     146     145     146
     147     148     149     150     154     158     159     160     146     147
     148     158     147     148     149     150     151     152     153     154
     155     156     157     158     159     160     161     162     148     149
     150     154     158     159     160     149     150     151     152     153
     154     155     156     157     158     159     160     150     151     152
     153     154     155     156     157     158     151     152     153     154
     155     156     157     158     152     153     154     153     154     154
     155     156     157     158     156     157     157       0     159     160
     161     162     163     164     165     160     161     162     161     162
     163     164     165     162     163     164     165     163     164     165
     164     165     165       0
%FLAG HBOND_ACOEF                                                               
%FORMAT(5E16.8)                                                                 

%FLAG HBOND_BCOEF                                                               
%FORMAT(5E16.8)                                                                 

%FLAG HBCUT                                                                     
%FORMAT(5E16.8)                                                                 

%FLAG AMBER_ATOM_TYPE                                                           
%FORMAT(20a4)                                                                   
HC  CT  HC  HC  C   O   N   H   CX  H1  2C  HC  HC  3C  HC  CT  HC  HC  HC  CT  
HC  HC  HC  C   O   N   H   CX  H1  2C  HC  HC  3C  HC  CT  HC  HC  HC  CT  HC  
HC  HC  C   O   N   H   CX  H1  CT  HC  HC  CA  CA  HA  CA  HA  CA  HA  CA  HA  
CA  HA  C   O   N   H   CX  H1  H1  C   O   N   H   CX  H1  CT  HC  HC  CA  CA  
HA  CA  HA  C   OH  HO  CA  HA  CA  HA  C   O   N   CT  H1  H1  CT  HC  HC  CT  
HC  HC  CX  H1  C   O   N   H   CX  H1  3C  HC  CT  HC  HC  HC  CT  HC  HC  HC  
C   O   N   H   CX  H1  CT  HC  HC  CA  CA  HA  CA  HA  C   OH  HO  CA  HA  CA  
HA  C   O   N   H   CX  H1  3C  HC  CT  HC  HC  HC  CT  HC  HC  HC  C   O   N   
H   CT  H1  H1  H1  
%FLAG TREE_CHAIN_CLASSIFICATION                                                 
%FORMAT(20a4)                                                                   
M   M   E   E   M   E   M   E   M   E   3   E   E   3   E   3   E   E   E   3   
E   E   E   M   E   M   E   M   E   3   E   E   3   E   3   E   E   E   3   E   
E   E   M   E   M   E   M   E   3   E   E   B   B   E   B   E   B   E   S   E   
S   E   M   E   M   E   M   E   E   M   E   M   E   M   E   3   E   E   B   B   
E   B   E   B   S   E   S   E   S   E   M   E   M   3   E   E   3   E   E   B   
E   E   M   E   M   E   M   E   M   E   3   E   3   E   E   E   3   E   E   E   
M   E   M   E   M   E   3   E   E   B   B   E   B   E   B   S   E   S   E   S   
E   M   E   M   E   M   E   3   E   3   E   E   E   3   E   E   E   M   E   M   
E   M   E   E   E   
%FLAG JOIN_ARRAY                                                                
%FORMAT(10I8)                                                                   
       0       0       0       0       0       0       0       0       0       0
       0       0       0       0       0       0       0       0       0       0
       0       0       0       0       0       0       0       0       0       0
       0       0       0       0       0       0       0       0       0       0
       0       0       0       0       0       0       0       0       0       0
       0       0       0       0       0       0       0       0       0       0
       0       0       0       0       0       0       0       0       0       0
       0       0       0       0       0       0       0       0       0       0
       0       0       0       0       0       0       0       0       0       0
       0       0       0       0       0       0       0       0       0       0
       0       0       0       0       0       0       0       0       0       0
       0       0       0       0       0       0       0       0       0       0
       0       0       0       0       0       0       0       0       0       0
       0       0       0       0       0       0       0       0       0       0
       0       0       0       0       0       0       0       0       0       0
       0       0       0       0       0       0       0       0       0       0
       0       0       0       0       0
%FLAG IROTAT                                                                    
%FORMAT(10I8)                                                                   
       0       0       0       0       0       0       0       0       0       0
       0       0       0       0       0       0       0       0       0       0
       0       0       0       0       0       0       0       0       0       0
       0       0       0       0       0       0       0       0       0       0
       0       0       0       0       0       0       0       0       0       0
       0       0       0       0       0       0       0       0       0       0
       0       0       0       0       0       0       0       0       0       0
       0       0       0       0       0       0       0       0       0       0
       0       0       0       0       0       0       0       0       0       0
       0       0       0       0       0       0       0       0       0       0
       0       0       0       0       0       0       0       0       0       0
       0       0       0       0       0       0       0       0       0       0
       0       0       0       0       0       0       0       0       0       0
       0       0       0       0       0       0       0       0       0       0
       0       0       0       0       0       0       0       0       0       0
       0       0       0       0       0       0       0       0       0       0
       0       0       0       0       0
%FLAG RADIUS_SET                                                                
%FORMAT(1a80)                                                                   
modified Bondi radii (mbondi)                                                   
%FLAG RADII                                                                     
%FORMAT(5E16.8)                                                                 
  1.30000000E+00  1.70000000E+00  1.30000000E+00  1.30000000E+00  1.70000000E+00
  1.50000000E+00  1.55000000E+00  1.30000000E+00  1.70000000E+00  1.30000000E+00
  1.70000000E+00  1.30000000E+00  1.30000000E+00  1.70000000E+00  1.30000000E+00
  1.70000000E+00  1.30000000E+00  1.30000000E+00  1.30000000E+00  1.70000000E+00
  1.30000000E+00  1.30000000E+00  1.30000000E+00  1.70000000E+00  1.50000000E+00
  1.55000000E+00  1.30000000E+00  1.70000000E+00  1.30000000E+00  1.70000000E+00
  1.30000000E+00  1.30000000E+00  1.70000000E+00  1.30000000E+00  1.70000000E+00
  1.30000000E+00  1.30000000E+00  1.30000000E+00  1.70000000E+00  1.30000000E+00
  1.30000000E+00  1.30000000E+00  1.70000000E+00  1.50000000E+00  1.55000000E+00
  1.30000000E+00  1.70000000E+00  1.30000000E+00  1.70000000E+00  1.30000000E+00
  1.30000000E+00  1.70000000E+00  1.70000000E+00  1.30000000E+00  1.70000000E+00
  1.30000000E+00  1.70000000E+00  1.30000000E+00  1.70000000E+00  1.30000000E+00
  1.70000000E+00  1.30000000E+00  1.70000000E+00  1.50000000E+00  1.55000000E+00
  1.30000000E+00  1.70000000E+00  1.30000000E+00  1.30000000E+00  1.70000000E+00
  1.50000000E+00  1.55000000E+00  1.30000000E+00  1.70000000E+00  1.30000000E+00
  1.70000000E+00  1.30000000E+00  1.30000000E+00  1.70000000E+00  1.70000000E+00
  1.30000000E+00  1.70000000E+00  1.30000000E+00  1.70000000E+00  1.50000000E+00
  8.00000000E-01  1.70000000E+00  1.30000000E+00  1.70000000E+00  1.30000000E+00
  1.70000000E+00  1.50000000E+00  1.55000000E+00  1.70000000E+00  1.30000000E+00
  1.30000000E+00  1.70000000E+00  1.30000000E+00  1.30000000E+00  1.70000000E+00
  1.30000000E+00  1.30000000E+00  1.70000000E+00  1.30000000E+00  1.70000000E+00
  1.50000000E+00  1.55000000E+00  1.30000000E+00  1.70000000E+00  1.30000000E+00
  1.70000000E+00  1.30000000E+00  1.70000000E+00  1.30000000E+00  1.30000000E+00
  1.30000000E+00  1.70000000E+00  1.30000000E+00  1.30000000E+00  1.30000000E+00
  1.70000000E+00  1.50000000E+00  1.55000000E+00  1.30000000E+00  1.70000000E+00
  1.30000000E+00  1.70000000E+00  1.30000000E+00  1.30000000E+00  1.70000000E+00
  1.70000000E+00  1.30000000E+00  1.70000000E+00  1.30000000E+00  1.70000000E+00
  1.50000000E+00  8.00000000E-01  1.70000000E+00  1.30000000E+00  1.70000000E+00
  1.30000000E+00  1.70000000E+00  1.50000000E+00  1.55000000E+00  1.30000000E+00
  1.70000000E+00  1.30000000E+00  1.70000000E+00  1.30000000E+00  1.70000000E+00
  1.30000000E+00  1.30000000E+00  1.30000000E+00  1.70000000E+00  1.30000000E+00
  1.30000000E+00  1.30000000E+00  1.70000000E+00  1.50000000E+00  1.55000000E+00
  1.30000000E+00  1.70000000E+00  1.30000000E+00  1.30000000E+00  1.30000000E+00
%FLAG SCREEN                                                                    
%FORMAT(5E16.8)                                                                 
  8.50000000E-01  7.20000000E-01  8.50000000E-01  8.50000000E-01  7.20000000E-01
  8.50000000E-01  7.90000000E-01  8.50000000E-01  7.20000000E-01  8.50000000E-01
  7.20000000E-01  8.50000000E-01  8.50000000E-01  7.20000000E-01  8.50000000E-01
  7.20000000E-01  8.50000000E-01  8.50000000E-01  8.50000000E-01  7.20000000E-01
  8.50000000E-01  8.50000000E-01  8.50000000E-01  7.20000000E-01  8.50000000E-01
  7.90000000E-01  8.50000000E-01  7.20000000E-01  8.50000000E-01  7.20000000E-01
  8.50000000E-01  8.50000000E-01  7.20000000E-01  8.50000000E-01  7.20000000E-01
  8.50000000E-01  8.50000000E-01  8.50000000E-01  7.20000000E-01  8.50000000E-01
  8.50000000E-01  8.50000000E-01  7.20000000E-01  8.50000000E-01  7.90000000E-01
  8.50000000E-01  7.20000000E-01  8.50000000E-01  7.20000000E-01  8.50000000E-01
  8.50000000E-01  7.20000000E-01  7.20000000E-01  8.50000000E-01  7.20000000E-01
  8.50000000E-01  7.20000000E-01  8.50000000E-01  7.20000000E-01  8.50000000E-01
  7.20000000E-01  8.50000000E-01  7.20000000E-01  8.50000000E-01  7.90000000E-01
  8.50000000E-01  7.20000000E-01  8.50000000E-01  8.50000000E-01  7.20000000E-01
  8.50000000E-01  7.90000000E-01  8.50000000E-01  7.20000000E-01  8.50000000E-01
  7.20000000E-01  8.50000000E-01  8.50000000E-01  7.20000000E-01  7.20000000E-01
  8.50000000E-01  7.20000000E-01  8.50000000E-01  7.20000000E-01  8.50000000E-01
  8.50000000E-01  7.20000000E-01  8.50000000E-01  7.20000000E-01  8.50000000E-01
  7.20000000E-01  8.50000000E-01  7.90000000E-01  7.20000000E-01  8.50000000E-01
  8.50000000E-01  7.20000000E-01  8.50000000E-01  8.50000000E-01  7.20000000E-01
  8.50000000E-01  8.50000000E-01  7.20000000E-01  8.50000000E-01  7.20000000E-01
  8.50000000E-01  7.90000000E-01  8.50000000E-01  7.20000000E-01  8.50000000E-01
  7.20000000E-01  8.50000000E-01  7.20000000E-01  8.50000000E-01  8.50000000E-01
  8.50000000E-01  7.20000000E-01  8.50000000E-01  8.50000000E-01  8.50000000E-01
  7.20000000E-01  8.50000000E-01  7.90000000E-01  8.50000000E-01  7.20000000E-01
  8.50000000E-01  7.20000000E-01  8.50000000E-01  8.50000000E-01  7.20000000E-01
  7.20000000E-01  8.50000000E-01  7.20000000E-01  8.50000000E-01  7.20000000E-01
  8.50000000E-01  8.50000000E-01  7.20000000E-01  8.50000000E-01  7.20000000E-01
  8.50000000E-01  7.20000000E-01  8.50000000E-01  7.90000000E-01  8.50000000E-01
  7.20000000E-01  8.50000000E-01  7.20000000E-01  8.50000000E-01  7.20000000E-01
  8.50000000E-01  8.50000000E-01  8.50000000E-01  7.20000000E-01  8.50000000E-01
  8.50000000E-01  8.50000000E-01  7.20000000E-01  8.50000000E-01  7.90000000E-01
  8.50000000E-01  7.20000000E-01  8.50000000E-01  8.50000000E-01  8.50000000E-01
%FLAG IPOL                                                                      
%FORMAT(1I8)                                                                    
       0
