default_name
   126
   1.8660000   1.5000000  -0.0000000   1.9580000   1.7210000   0.9300000
   0.7880000   2.1110000   1.6740000   0.0600000   1.3010000   1.6570000
   0.3510000   3.0020000   1.2230000   1.1660000   2.4130000   3.1150000
   0.3920000   3.0300000   3.5720000   1.1420000   1.1700000   3.8800000
   2.4680000   0.7380000   4.1470000   2.6230000   0.6850000   5.2250000
   2.6320000  -0.7080000   3.7060000   2.8750000  -1.2530000   2.4730000
   2.9820000  -0.6120000   1.6110000   3.0150000  -2.5450000   2.4870000
   2.8540000  -2.8870000   3.8240000   2.8900000  -4.1150000   4.4960000
   3.1100000  -5.2870000   3.8850000   3.1240000  -6.1420000   4.4220000
   3.2610000  -5.3150000   2.8860000   2.6920000  -4.0990000   5.8210000
   2.4740000  -2.9330000   6.4230000   2.3120000  -2.8980000   7.4900000
   2.4190000  -1.7230000   5.9000000   2.6210000  -1.7670000   4.5660000
   2.5760000   2.9670000   3.3310000   2.8820000   3.5360000   2.4530000
   3.4250000   1.6990000   3.4390000   4.1780000   1.6970000   2.6510000
   3.9170000   1.6720000   4.4110000   2.7860000   3.7210000   4.5160000
   4.2330000   4.3490000   4.8390000   5.2090000   3.2400000   4.9280000
   4.1460000   5.0730000   6.1270000   4.4830000   5.3130000   3.5870000
   4.1190000   4.8560000   2.2710000   3.9400000   5.7150000   1.6240000
   4.6750000   3.9490000   2.0330000   4.4430000   5.9260000   1.2410000
   4.5070000   5.4720000   0.2520000   3.3160000   6.8490000   1.1480000
   3.6360000   8.0750000   1.7890000   3.5760000   8.8890000   1.0670000
   2.5510000   8.3850000   2.7620000   2.5270000   7.8120000   3.9950000
   3.3040000   7.1180000   4.2830000   1.5360000   8.0970000   4.8810000
   1.5330000   7.6280000   5.8650000   0.5320000   9.0210000   4.4540000
  -0.4600000   9.3420000   5.2630000  -1.1490000   9.9980000   4.9240000
  -0.5140000   8.9390000   6.1880000   0.5630000   9.5770000   3.2460000
   1.5630000   9.2790000   2.3740000   1.6260000   9.7760000   1.2400000
   5.6410000   6.8200000   1.5650000   6.3630000   6.2600000   2.1600000
   5.0190000   7.9220000   2.4250000   5.4910000   7.9280000   3.4070000
   5.1710000   8.8880000   1.9440000   6.2800000   7.4490000   0.4640000
   7.5500000   8.4110000   0.6960000   7.1310000   9.5290000   1.5700000
   7.9960000   8.9150000  -0.6220000   8.6080000   7.4300000   1.3880000
   8.1500000   6.5050000   2.3920000   7.7600000   7.0580000   3.2460000
   7.7060000   7.0570000   3.2200000   9.3160000   5.6790000   2.9090000
   9.0590000   5.2520000   3.8780000   9.4990000   4.5220000   2.0370000
  10.6420000   4.7070000   1.2150000  11.3600000   3.9100000   1.4060000
  10.2340000   4.4830000  -0.2010000   9.6140000   5.3500000  -1.0770000
   9.3590000   6.3500000  -0.7590000   9.3890000   4.8380000  -2.2620000
   9.8920000   3.5460000  -2.1690000   9.9370000   2.5040000  -3.1330000
   9.5310000   2.5110000  -4.2940000  10.5370000   1.3520000  -2.6120000
  10.6140000   0.5600000  -3.2170000  11.0320000   1.2220000  -1.3300000
  11.5700000   0.0330000  -1.0250000  11.6400000  -0.7740000  -1.6270000
  11.9260000  -0.0730000  -0.0860000  10.9910000   2.2000000  -0.4290000
  10.4100000   3.3270000  -0.9200000  10.6780000   6.3760000   2.9060000
  10.5380000   7.4480000   3.0440000  11.1940000   6.1070000   1.4910000
  11.3620000   7.0540000   0.9790000  12.1310000   5.5530000   1.5450000
  11.6480000   5.8760000   3.8150000  13.1130000   6.5380000   3.8920000
  13.7500000   6.4100000   2.5630000  13.8960000   5.8130000   4.9190000
  12.7910000   8.0530000   4.2960000  11.6770000   8.7190000   3.6730000
  11.8100000   9.7980000   3.7470000  11.8290000   8.7500000   2.5940000
  11.5580000  10.1390000   4.2020000  10.9730000  10.7390000   3.5050000
  10.7620000  10.1210000   5.4260000  11.6030000  10.3020000   6.5560000
  11.2990000  11.1990000   7.0960000  11.3470000   9.1860000   7.5700000
  11.9080000   7.9400000   7.4680000  12.5650000   7.7100000   6.6430000
  11.7010000   7.0060000   8.4070000  12.3100000   5.6400000   8.3040000
  13.3970000   5.7270000   8.2780000  12.0150000   5.0440000   9.1670000
  11.9630000   5.1540000   7.3920000  10.8790000   7.2860000   9.5550000
  10.6330000   6.4940000  10.4640000  10.3550000   8.5620000   9.5760000
   9.7260000   8.8210000  10.4280000  10.5510000   9.5440000   8.6260000
  10.0430000  10.6490000   8.7330000  12.8710000  10.8090000   4.6110000
  13.6850000  10.4150000   4.0020000  13.0500000  10.3490000   6.0590000
  13.9820000   9.7920000   6.1520000  13.0790000  11.2180000   6.7160000
  12.8860000  12.2280000   4.6110000  13.7200000  12.6250000   4.8710000
