%VERSION  VERSION_STAMP = V0001.000  DATE = 09/04/26  02:30:51                  
%FLAG TITLE                                                                     
%FORMAT(20a4)                                                                   
default_name                                                                    
%FLAG POINTERS                                                                  
%FORMAT(10I8)                                                                   
     126      15      47      88     109     134     236     301       0       0
     695       4      88     134     301      50     103      77      29       0
       0       0       0       0       0       0       0       0      33       0
       0
%FLAG ATOM_NAME                                                                 
%FORMAT(20a4)                                                                   
HO5'O5' C5' H5' H5''C4' H4' O4' C1' H1' N9  C8  H8  N7  C5  C6  N6  H61 H62 N1  
C2  H2  N3  C4  C3' H3' C2' H2' H2''O3' P   OP1 OP2 O5' C5' H5' H5''C4' H4' O4' 
C1' H1' N1  C6  H6  C5  H5  C4  N4  H41 H42 N3  C2  O2  C3' H3' C2' H2' H2''O3' 
P   OP1 OP2 O5' C5' H5' H5''C4' H4' O4' C1' H1' N9  C8  H8  N7  C5  C6  O6  N1  
H1  C2  N2  H21 H22 N3  C4  C3' H3' C2' H2' H2''O3' P   OP1 OP2 O5' C5' H5' H5''
C4' H4' O4' C1' H1' N1  C6  H6  C5  C7  H71 H72 H73 C4  O4  N3  H3  C2  O2  C3' 
H3' C2' H2' H2''O3' HO3'
%FLAG CHARGE                                                                    
%FORMAT(5E16.8)                                                                 
  8.05790106E+00 -1.15128491E+01 -1.25733870E-01  1.37396142E+00  1.37396142E+00
  2.96841267E+00  2.14294248E+00 -6.72585093E+00  7.85381130E-01  3.34925874E+00
 -4.88357640E-01  2.92832361E+00  3.42032571E+00 -1.12522703E+01  1.32111675E+00
  1.25679203E+01 -1.66242043E+01  7.59323241E+00  7.59323241E+00 -1.38926815E+01
  1.04158667E+01  1.08969354E+00 -1.35154799E+01  6.92447400E+00  1.29924999E+00
  1.79489655E+00 -1.55618442E+00  1.30836114E+00  1.30836114E+00 -9.53390736E+00
  2.12453796E+01 -1.41423270E+01 -1.41423270E+01 -9.02732742E+00 -1.25733870E-01
  1.37396142E+00  1.37396142E+00  2.96841267E+00  2.14294248E+00 -6.72585093E+00
 -2.11378680E-01  3.57703749E+00 -6.17735970E-01 -3.33468090E-01  4.17837339E+00
 -9.51568506E+00  3.39481449E+00  1.53777990E+01 -1.78086538E+01  7.86110022E+00
  7.86110022E+00 -1.41186380E+01  1.45031286E+01 -1.19319620E+01  1.29924999E+00
  1.79489655E+00 -1.55618442E+00  1.30836114E+00  1.30836114E+00 -9.53390736E+00
  2.12453796E+01 -1.41423270E+01 -1.41423270E+01 -9.02732742E+00 -1.25733870E-01
  1.37396142E+00  1.37396142E+00  2.96841267E+00  2.14294248E+00 -6.72585093E+00
  6.52358340E-01  3.18161358E+00  1.05142671E+00  1.34116128E+00  3.63899331E+00
 -1.04322668E+01  3.62805993E+00  8.96172714E+00 -1.03848888E+01 -9.20772819E+00
  6.41424960E+00  1.35428134E+01 -1.68191829E+01  7.71714405E+00  7.71714405E+00
 -1.20923183E+01  3.30552522E+00  1.29924999E+00  1.79489655E+00 -1.55618442E+00
  1.30836114E+00  1.30836114E+00 -9.53390736E+00  2.12453796E+01 -1.41423270E+01
 -1.41423270E+01 -9.02732742E+00 -1.25733870E-01  1.37396142E+00  1.37396142E+00
  2.96841267E+00  2.14294248E+00 -6.72585093E+00  1.23911640E+00  3.28730292E+00
 -4.35512970E-01 -4.02530607E+00  4.75055361E+00  4.55557500E-02 -4.13463987E+00
  1.40311710E+00  1.40311710E+00  1.40311710E+00  9.46466262E+00 -1.01370655E+01
 -7.90847820E+00  6.23202660E+00  1.03447997E+01 -1.07165346E+01  1.29924999E+00
  1.79489655E+00 -1.55618442E+00  1.30836114E+00  1.30836114E+00 -1.19337843E+01
  8.01052308E+00
%FLAG ATOMIC_NUMBER                                                             
%FORMAT(10I8)                                                                   
       1       8       6       1       1       6       1       8       6       1
       7       6       1       7       6       6       7       1       1       7
       6       1       7       6       6       1       6       1       1       8
      15       8       8       8       6       1       1       6       1       8
       6       1       7       6       1       6       1       6       7       1
       1       7       6       8       6       1       6       1       1       8
      15       8       8       8       6       1       1       6       1       8
       6       1       7       6       1       7       6       6       8       7
       1       6       7       1       1       7       6       6       1       6
       1       1       8      15       8       8       8       6       1       1
       6       1       8       6       1       7       6       1       6       6
       1       1       1       6       8       7       1       6       8       6
       1       6       1       1       8       1
%FLAG MASS                                                                      
%FORMAT(5E16.8)                                                                 
  1.00800000E+00  1.60000000E+01  1.20100000E+01  1.00800000E+00  1.00800000E+00
  1.20100000E+01  1.00800000E+00  1.60000000E+01  1.20100000E+01  1.00800000E+00
  1.40100000E+01  1.20100000E+01  1.00800000E+00  1.40100000E+01  1.20100000E+01
  1.20100000E+01  1.40100000E+01  1.00800000E+00  1.00800000E+00  1.40100000E+01
  1.20100000E+01  1.00800000E+00  1.40100000E+01  1.20100000E+01  1.20100000E+01
  1.00800000E+00  1.20100000E+01  1.00800000E+00  1.00800000E+00  1.60000000E+01
  3.09700000E+01  1.60000000E+01  1.60000000E+01  1.60000000E+01  1.20100000E+01
  1.00800000E+00  1.00800000E+00  1.20100000E+01  1.00800000E+00  1.60000000E+01
  1.20100000E+01  1.00800000E+00  1.40100000E+01  1.20100000E+01  1.00800000E+00
  1.20100000E+01  1.00800000E+00  1.20100000E+01  1.40100000E+01  1.00800000E+00
  1.00800000E+00  1.40100000E+01  1.20100000E+01  1.60000000E+01  1.20100000E+01
  1.00800000E+00  1.20100000E+01  1.00800000E+00  1.00800000E+00  1.60000000E+01
  3.09700000E+01  1.60000000E+01  1.60000000E+01  1.60000000E+01  1.20100000E+01
  1.00800000E+00  1.00800000E+00  1.20100000E+01  1.00800000E+00  1.60000000E+01
  1.20100000E+01  1.00800000E+00  1.40100000E+01  1.20100000E+01  1.00800000E+00
  1.40100000E+01  1.20100000E+01  1.20100000E+01  1.60000000E+01  1.40100000E+01
  1.00800000E+00  1.20100000E+01  1.40100000E+01  1.00800000E+00  1.00800000E+00
  1.40100000E+01  1.20100000E+01  1.20100000E+01  1.00800000E+00  1.20100000E+01
  1.00800000E+00  1.00800000E+00  1.60000000E+01  3.09700000E+01  1.60000000E+01
  1.60000000E+01  1.60000000E+01  1.20100000E+01  1.00800000E+00  1.00800000E+00
  1.20100000E+01  1.00800000E+00  1.60000000E+01  1.20100000E+01  1.00800000E+00
  1.40100000E+01  1.20100000E+01  1.00800000E+00  1.20100000E+01  1.20100000E+01
  1.00800000E+00  1.00800000E+00  1.00800000E+00  1.20100000E+01  1.60000000E+01
  1.40100000E+01  1.00800000E+00  1.20100000E+01  1.60000000E+01  1.20100000E+01
  1.00800000E+00  1.20100000E+01  1.00800000E+00  1.00800000E+00  1.60000000E+01
  1.00800000E+00
%FLAG ATOM_TYPE_INDEX                                                           
%FORMAT(10I8)                                                                   
       1       2       3       4       4       3       4       5       3       6
       7       8       9       7       8       8       7      10      10       7
       8       9       7       8       3       4       3      11      11       5
      12      13      13       5       3       4       4       3       4       5
       3       6       7       8      14       8      15       8       7      10
      10       7       8      13       3       4       3      11      11       5
      12      13      13       5       3       4       4       3       4       5
       3       6       7       8       9       7       8       8      13       7
      10       8       7      10      10       7       8       3       4       3
      11      11       5      12      13      13       5       3       4       4
       3       4       5       3       6       7       8      14       8       3
      11      11      11       8      13       7      10       8      13       3
       4       3      11      11       2       1
%FLAG NUMBER_EXCLUDED_ATOMS                                                     
%FORMAT(10I8)                                                                   
       5       7      10       5       4      12       6      11      14       7
      12       7       3       6       8       8       5       2       1       4
       3       2       1       1       9       5       4       2       1       5
       7       3       2       7      10       5       4      12       6      11
      14       7      12       9       4       7       3       6       4       2
       1       2       2       1       9       5       4       2       1       5
       7       3       2       7      10       5       4      12       6      11
      14       7      12       7       3       6       7       7       4       7
       3       5       4       2       1       1       1       9       5       4
       2       1       5       7       3       2       7      10       5       4
      12       6      11      14       7      13      12       4       9       6
       3       2       1       5       3       3       2       2       1       6
       5       4       2       1       1       1
%FLAG NONBONDED_PARM_INDEX                                                      
%FORMAT(10I8)                                                                   
       1       2       4       7      11      16      22      29      37      46
      56      67      79      92     106       2       3       5       8      12
      17      23      30      38      47      57      68      80      93     107
       4       5       6       9      13      18      24      31      39      48
      58      69      81      94     108       7       8       9      10      14
      19      25      32      40      49      59      70      82      95     109
      11      12      13      14      15      20      26      33      41      50
      60      71      83      96     110      16      17      18      19      20
      21      27      34      42      51      61      72      84      97     111
      22      23      24      25      26      27      28      35      43      52
      62      73      85      98     112      29      30      31      32      33
      34      35      36      44      53      63      74      86      99     113
      37      38      39      40      41      42      43      44      45      54
      64      75      87     100     114      46      47      48      49      50
      51      52      53      54      55      65      76      88     101     115
      56      57      58      59      60      61      62      63      64      65
      66      77      89     102     116      67      68      69      70      71
      72      73      74      75      76      77      78      90     103     117
      79      80      81      82      83      84      85      86      87      88
      89      90      91     104     118      92      93      94      95      96
      97      98      99     100     101     102     103     104     105     119
     106     107     108     109     110     111     112     113     114     115
     116     117     118     119     120
%FLAG RESIDUE_LABEL                                                             
%FORMAT(20a4)                                                                   
DA5 DC  DG  DT3 
%FLAG RESIDUE_POINTER                                                           
%FORMAT(10I8)                                                                   
       1      31      61      94
%FLAG BOND_FORCE_CONSTANT                                                       
%FORMAT(5E16.8)                                                                 
  2.30000000E+02  3.40000000E+02  3.40000000E+02  3.10000000E+02  3.20000000E+02
  4.61000000E+02  3.67000000E+02  5.02000000E+02  4.34000000E+02  4.81000000E+02
  4.83000000E+02  4.69000000E+02  5.20000000E+02  4.14000000E+02  3.67000000E+02
  5.29000000E+02  4.40000000E+02  4.36000000E+02  3.40000000E+02  3.37000000E+02
  3.10000000E+02  3.20000000E+02  3.40000000E+02  3.40000000E+02  3.10000000E+02
  3.20000000E+02  5.53000000E+02  5.70000000E+02  4.57000000E+02  3.67000000E+02
  4.27000000E+02  3.67000000E+02  5.49000000E+02  4.48000000E+02  4.24000000E+02
  3.20000000E+02  5.25000000E+02  4.34000000E+02  4.27000000E+02  4.18000000E+02
  4.47000000E+02  3.67000000E+02  5.29000000E+02  4.40000000E+02  3.20000000E+02
  3.17000000E+02  4.10000000E+02  3.67000000E+02  5.49000000E+02  4.48000000E+02
%FLAG BOND_EQUIL_VALUE                                                          
%FORMAT(5E16.8)                                                                 
  1.61000000E+00  1.09000000E+00  1.09000000E+00  1.52600000E+00  1.41000000E+00
  1.35400000E+00  1.08000000E+00  1.32400000E+00  1.01000000E+00  1.34000000E+00
  1.33900000E+00  1.40400000E+00  1.37000000E+00  1.39100000E+00  1.08000000E+00
  1.30400000E+00  1.37100000E+00  1.37400000E+00  1.09000000E+00  1.47500000E+00
  1.52600000E+00  1.41000000E+00  1.09000000E+00  1.09000000E+00  1.52600000E+00
  1.41000000E+00  9.60000000E-01  1.22900000E+00  1.35800000E+00  1.08000000E+00
  1.43300000E+00  1.08000000E+00  1.35000000E+00  1.36500000E+00  1.38300000E+00
  1.41000000E+00  1.48000000E+00  1.01000000E+00  1.38100000E+00  1.38800000E+00
  1.41900000E+00  1.08000000E+00  1.30400000E+00  1.37100000E+00  1.41000000E+00
  1.51000000E+00  1.44400000E+00  1.08000000E+00  1.35000000E+00  1.36500000E+00
%FLAG ANGLE_FORCE_CONSTANT                                                      
%FORMAT(5E16.8)                                                                 
  1.00000000E+02  4.50000000E+01  3.50000000E+01  5.00000000E+01  5.00000000E+01
  5.00000000E+01  5.00000000E+01  1.00000000E+02  5.00000000E+01  7.00000000E+01
  7.00000000E+01  3.50000000E+01  7.00000000E+01  6.30000000E+01  5.00000000E+01
  7.00000000E+01  7.00000000E+01  7.00000000E+01  7.00000000E+01  7.00000000E+01
  7.00000000E+01  5.00000000E+01  7.00000000E+01  7.00000000E+01  5.00000000E+01
  5.00000000E+01  7.00000000E+01  7.00000000E+01  7.00000000E+01  5.00000000E+01
  5.00000000E+01  7.00000000E+01  7.00000000E+01  4.00000000E+01  5.00000000E+01
  5.00000000E+01  5.00000000E+01  5.00000000E+01  5.00000000E+01  5.00000000E+01
  5.00000000E+01  6.00000000E+01  4.00000000E+01  5.00000000E+01  3.50000000E+01
  5.00000000E+01  5.00000000E+01  4.00000000E+01  5.00000000E+01  5.00000000E+01
  5.50000000E+01  8.00000000E+01  7.00000000E+01  5.00000000E+01  7.00000000E+01
  7.00000000E+01  5.00000000E+01  7.00000000E+01  5.00000000E+01  6.30000000E+01
  5.00000000E+01  7.00000000E+01  7.00000000E+01  8.00000000E+01  7.00000000E+01
  7.00000000E+01  5.00000000E+01  5.00000000E+01  1.40000000E+02  1.00000000E+02
  7.00000000E+01  5.00000000E+01  7.00000000E+01  7.00000000E+01  8.00000000E+01
  6.30000000E+01  5.00000000E+01  7.00000000E+01  8.00000000E+01  7.00000000E+01
  7.00000000E+01  5.00000000E+01  7.00000000E+01  7.00000000E+01  5.00000000E+01
  7.00000000E+01  7.00000000E+01  5.00000000E+01  5.00000000E+01  5.50000000E+01
  7.00000000E+01  7.00000000E+01  5.00000000E+01  8.00000000E+01  7.00000000E+01
  5.00000000E+01  7.00000000E+01  7.00000000E+01  6.30000000E+01  5.00000000E+01
  7.00000000E+01  7.00000000E+01  7.00000000E+01
%FLAG ANGLE_EQUIL_VALUE                                                         
%FORMAT(5E16.8)                                                                 
  1.88897066E+00  1.79070858E+00  1.91113635E+00  1.91113635E+00  1.91113635E+00
  1.91113635E+00  1.91113635E+00  2.10312265E+00  2.01498349E+00  1.93731630E+00
  2.25322103E+00  2.09439600E+00  2.08217869E+00  2.04727209E+00  2.09439600E+00
  2.06996138E+00  2.15548255E+00  2.04727209E+00  2.22878641E+00  2.31081692E+00
  1.92684432E+00  2.14762857E+00  1.83957782E+00  1.81165254E+00  1.91113635E+00
  2.14762857E+00  1.98793087E+00  1.85354046E+00  2.20260646E+00  1.91113635E+00
  1.91113635E+00  2.24798504E+00  2.19562514E+00  1.91113635E+00  1.91113635E+00
  1.91113635E+00  1.91113635E+00  1.91113635E+00  1.91113635E+00  1.91113635E+00
  1.91113635E+00  1.91113635E+00  1.91113635E+00  1.91113635E+00  1.91113635E+00
  1.91113635E+00  1.91113635E+00  1.91113635E+00  1.91113635E+00  1.91113635E+00
  1.89368305E+00  2.13802925E+00  2.10312265E+00  2.15199189E+00  2.09614133E+00
  2.12057595E+00  2.08916001E+00  2.12232128E+00  2.08916001E+00  2.04203610E+00
  2.07868803E+00  2.11533996E+00  2.06996138E+00  2.11010397E+00  2.11533996E+00
  2.05250808E+00  1.91113635E+00  1.91113635E+00  2.09265067E+00  2.10312265E+00
  1.95826026E+00  2.05948940E+00  2.02458280E+00  2.15199189E+00  2.10486798E+00
  2.08043336E+00  2.03854544E+00  2.18515316E+00  2.24798504E+00  1.94255229E+00
  2.26892900E+00  2.14762857E+00  1.83957782E+00  1.81165254E+00  2.14762857E+00
  1.98793087E+00  2.24798504E+00  1.91113635E+00  1.91113635E+00  1.89368305E+00
  2.20609712E+00  2.08916001E+00  1.91113635E+00  2.18689849E+00  1.99142153E+00
  2.08916001E+00  2.12232128E+00  2.08916001E+00  2.10661331E+00  2.07868803E+00
  2.11533996E+00  2.01411082E+00  2.11533996E+00
%FLAG DIHEDRAL_FORCE_CONSTANT                                                   
%FORMAT(5E16.8)                                                                 
  3.16418000E-01  6.30096000E-01  2.41150000E-01  1.62591000E-01  9.75200000E-02
  4.32520000E-02  2.50000000E-01  0.00000000E+00  1.77488000E+00  6.46810000E-01
  1.52590000E-01  1.55555556E-01  3.83333333E-01  2.94070000E-01  9.28870000E-01
  9.74250000E-01  0.00000000E+00  6.80000000E+00  3.50000000E+00  2.40000000E+00
  4.80000000E+00  5.45000000E+00  4.15000000E+00  1.70000000E+00  1.00000000E+01
  1.65000000E+00  2.55000000E+00  1.00000000E-01  3.83000000E-01  1.17500000E+00
  1.44000000E-01  1.54499000E+00  1.82864000E+00  5.73840000E-01  6.50000000E-01
  2.00000000E-01  2.50000000E-01  1.80000000E-01  1.60000000E-01  4.46730000E-01
  3.84150000E-01  7.51420000E-01  1.39430000E-01  4.36200000E-02  3.83800000E-02
  1.66666667E-01  4.00000000E+00  1.85000000E+00  6.65000000E+00  1.45000000E+00
  6.87530000E-01  2.14047000E+00  1.20618000E+00  2.59980000E-01  2.50000000E-01
  5.27950000E-01  9.12740000E-02  5.35535000E-01  7.97600000E-02  1.50000000E+00
  3.00000000E+00  1.35000000E+00  1.18653000E+00  1.82910000E+00  6.65630000E-01
  2.17500000E+00  1.15000000E+00  3.80000000E-01  3.00000000E-01  5.63230000E-01
  2.17812000E+00  6.77570000E-01  1.37710000E-01  0.00000000E+00  1.10000000E+00
  1.00000000E+00  1.05000000E+01
%FLAG DIHEDRAL_PERIODICITY                                                      
%FORMAT(5E16.8)                                                                 
  1.00000000E+00  2.00000000E+00  3.00000000E+00  4.00000000E+00  5.00000000E+00
  6.00000000E+00  1.00000000E+00  3.00000000E+00  1.00000000E+00  2.00000000E+00
  3.00000000E+00  3.00000000E+00  3.00000000E+00  3.00000000E+00  1.00000000E+00
  2.00000000E+00  2.00000000E+00  2.00000000E+00  2.00000000E+00  2.00000000E+00
  2.00000000E+00  2.00000000E+00  2.00000000E+00  2.00000000E+00  2.00000000E+00
  2.00000000E+00  2.00000000E+00  2.00000000E+00  3.00000000E+00  2.00000000E+00
  3.00000000E+00  1.00000000E+00  2.00000000E+00  3.00000000E+00  2.00000000E+00
  1.00000000E+00  2.00000000E+00  3.00000000E+00  3.00000000E+00  1.00000000E+00
  2.00000000E+00  3.00000000E+00  4.00000000E+00  5.00000000E+00  6.00000000E+00
  3.00000000E+00  2.00000000E+00  2.00000000E+00  2.00000000E+00  2.00000000E+00
  1.00000000E+00  2.00000000E+00  3.00000000E+00  4.00000000E+00  3.00000000E+00
  1.00000000E+00  2.00000000E+00  3.00000000E+00  4.00000000E+00  2.00000000E+00
  2.00000000E+00  2.00000000E+00  1.00000000E+00  2.00000000E+00  3.00000000E+00
  2.00000000E+00  1.00000000E+00  3.00000000E+00  3.00000000E+00  1.00000000E+00
  2.00000000E+00  3.00000000E+00  4.00000000E+00  2.00000000E+00  2.00000000E+00
  2.00000000E+00  2.00000000E+00
%FLAG DIHEDRAL_PHASE                                                            
%FORMAT(5E16.8)                                                                 
  1.78135361E+00  6.27782984E+00  5.23372107E+00  5.59919317E-01  5.29805393E+00
  3.40234630E-01  0.00000000E+00  0.00000000E+00  3.59396957E+00  2.44056824E+00
  2.83610365E+00  0.00000000E+00  0.00000000E+00  6.25323814E+00  3.06008709E-02
  6.12404881E+00  0.00000000E+00  3.14159400E+00  3.14159400E+00  3.14159400E+00
  3.14159400E+00  3.14159400E+00  3.14159400E+00  3.14159400E+00  3.14159400E+00
  3.14159400E+00  3.14159400E+00  3.14159400E+00  0.00000000E+00  0.00000000E+00
  0.00000000E+00  7.08469590E-01  6.22250811E+00  3.12423320E+00  0.00000000E+00
  3.14159400E+00  3.14159400E+00  0.00000000E+00  0.00000000E+00  2.90541594E+00
  4.29031785E+00  6.00313235E+00  4.81763440E+00  5.32784672E+00  2.46419652E+00
  0.00000000E+00  3.14159400E+00  3.14159400E+00  3.14159400E+00  3.14159400E+00
  1.94285772E+00  6.28807841E+00  2.97823460E+00  1.64388095E+00  0.00000000E+00
  4.11516700E-01  3.90339511E+00  3.16964180E+00  3.75561907E+00  3.14159400E+00
  3.14159400E+00  3.14159400E+00  7.66639693E-01  6.12408721E+00  3.06161425E+00
  3.14159400E+00  0.00000000E+00  3.14159400E+00  0.00000000E+00  1.65293572E+00
  6.24569831E+00  3.11516447E+00  1.48989048E+00  3.14159400E+00  3.14159400E+00
  3.14159400E+00  3.14159400E+00
%FLAG SCEE_SCALE_FACTOR                                                         
%FORMAT(5E16.8)                                                                 
  1.20000000E+00  1.20000000E+00  1.20000000E+00  1.20000000E+00  1.20000000E+00
  1.20000000E+00  1.20000000E+00  1.20000000E+00  1.20000000E+00  1.20000000E+00
  1.20000000E+00  1.20000000E+00  1.20000000E+00  1.20000000E+00  1.20000000E+00
  1.20000000E+00  1.20000000E+00  1.20000000E+00  1.20000000E+00  1.20000000E+00
  1.20000000E+00  1.20000000E+00  1.20000000E+00  1.20000000E+00  1.20000000E+00
  1.20000000E+00  1.20000000E+00  1.20000000E+00  1.20000000E+00  1.20000000E+00
  1.20000000E+00  1.20000000E+00  1.20000000E+00  1.20000000E+00  1.20000000E+00
  1.20000000E+00  1.20000000E+00  1.20000000E+00  1.20000000E+00  1.20000000E+00
  1.20000000E+00  1.20000000E+00  1.20000000E+00  1.20000000E+00  1.20000000E+00
  1.20000000E+00  1.20000000E+00  1.20000000E+00  1.20000000E+00  1.20000000E+00
  1.20000000E+00  1.20000000E+00  1.20000000E+00  1.20000000E+00  1.20000000E+00
  1.20000000E+00  1.20000000E+00  1.20000000E+00  1.20000000E+00  1.20000000E+00
  1.20000000E+00  1.20000000E+00  1.20000000E+00  1.20000000E+00  1.20000000E+00
  1.20000000E+00  1.20000000E+00  1.20000000E+00  1.20000000E+00  1.20000000E+00
  1.20000000E+00  1.20000000E+00  1.20000000E+00  0.00000000E+00  0.00000000E+00
  0.00000000E+00  0.00000000E+00
%FLAG SCNB_SCALE_FACTOR                                                         
%FORMAT(5E16.8)                                                                 
  2.00000000E+00  2.00000000E+00  2.00000000E+00  2.00000000E+00  2.00000000E+00
  2.00000000E+00  2.00000000E+00  2.00000000E+00  2.00000000E+00  2.00000000E+00
  2.00000000E+00  2.00000000E+00  2.00000000E+00  2.00000000E+00  2.00000000E+00
  2.00000000E+00  2.00000000E+00  2.00000000E+00  2.00000000E+00  2.00000000E+00
  2.00000000E+00  2.00000000E+00  2.00000000E+00  2.00000000E+00  2.00000000E+00
  2.00000000E+00  2.00000000E+00  2.00000000E+00  2.00000000E+00  2.00000000E+00
  2.00000000E+00  2.00000000E+00  2.00000000E+00  2.00000000E+00  2.00000000E+00
  2.00000000E+00  2.00000000E+00  2.00000000E+00  2.00000000E+00  2.00000000E+00
  2.00000000E+00  2.00000000E+00  2.00000000E+00  2.00000000E+00  2.00000000E+00
  2.00000000E+00  2.00000000E+00  2.00000000E+00  2.00000000E+00  2.00000000E+00
  2.00000000E+00  2.00000000E+00  2.00000000E+00  2.00000000E+00  2.00000000E+00
  2.00000000E+00  2.00000000E+00  2.00000000E+00  2.00000000E+00  2.00000000E+00
  2.00000000E+00  2.00000000E+00  2.00000000E+00  2.00000000E+00  2.00000000E+00
  2.00000000E+00  2.00000000E+00  2.00000000E+00  2.00000000E+00  2.00000000E+00
  2.00000000E+00  2.00000000E+00  2.00000000E+00  0.00000000E+00  0.00000000E+00
  0.00000000E+00  0.00000000E+00
%FLAG SOLTY                                                                     
%FORMAT(5E16.8)                                                                 
  0.00000000E+00  0.00000000E+00  0.00000000E+00  0.00000000E+00  0.00000000E+00
  0.00000000E+00  0.00000000E+00  0.00000000E+00  0.00000000E+00  0.00000000E+00
  0.00000000E+00  0.00000000E+00  0.00000000E+00  0.00000000E+00  0.00000000E+00
  0.00000000E+00  0.00000000E+00  0.00000000E+00  0.00000000E+00  0.00000000E+00
  0.00000000E+00  0.00000000E+00  0.00000000E+00  0.00000000E+00  0.00000000E+00
  0.00000000E+00  0.00000000E+00  0.00000000E+00  0.00000000E+00
%FLAG LENNARD_JONES_ACOEF                                                       
%FORMAT(5E16.8)                                                                 
  0.00000000E+00  0.00000000E+00  5.81803229E+05  0.00000000E+00  7.91544157E+05
  1.04308023E+06  0.00000000E+00  4.66922514E+04  6.78771368E+04  3.25969625E+03
  0.00000000E+00  4.58874091E+05  6.28541240E+05  3.63097246E+04  3.61397723E+05
  0.00000000E+00  3.15360051E+04  4.68930885E+04  2.09814978E+03  2.44050579E+04
  1.32801250E+03  0.00000000E+00  7.44975864E+05  9.95480466E+05  6.20665997E+04
  5.89818288E+05  4.24594555E+04  9.44293233E+05  0.00000000E+00  7.01803794E+05
  9.24822270E+05  6.01816484E+04  5.57281136E+05  4.15766412E+04  8.82619071E+05
  8.19971662E+05  0.00000000E+00  4.09427581E+04  5.98885646E+04  2.82099197E+03
  3.17965283E+04  1.80748014E+03  5.46147253E+04  5.30987710E+04  2.43828624E+03
  0.00000000E+00  1.40467023E+03  2.56678134E+03  5.94667300E+01  1.03954408E+03
  3.20009193E+01  2.12601181E+03  2.27577561E+03  4.90239937E+01  1.39982777E-01
  0.00000000E+00  6.82786631E+04  9.71708117E+04  4.98586848E+03  5.33379252E+04
  3.25969625E+03  8.96776989E+04  8.61541883E+04  4.33325458E+03  1.07193646E+02
  7.51607703E+03  0.00000000E+00  1.98683736E+06  2.54188684E+06  1.81087383E+05
  1.58759528E+06  1.27716552E+05  2.45746558E+06  2.25370349E+06  1.60682053E+05
  8.41065839E+03  2.54238516E+05  6.02589390E+06  0.00000000E+00  4.71003287E+05
  6.47841731E+05  3.69471530E+04  3.70622491E+05  2.47595516E+04  6.06829342E+05
  5.74393458E+05  3.23283631E+04  1.02595236E+03  5.44261042E+04  1.64263766E+06
  3.79876399E+05  0.00000000E+00  4.96707306E+04  7.18621074E+04  3.50301067E+03
  3.86654993E+04  2.26273716E+03  6.58473870E+04  6.37148278E+04  3.03448006E+03
  6.63368273E+01  5.34045360E+03  1.90880272E+05  3.93690817E+04  3.76169105E+03
  0.00000000E+00  6.00750218E+04  8.59947003E+04  4.33325458E+03  4.68711055E+04
  2.82099197E+03  7.91627154E+04  7.62451550E+04  3.76169105E+03  8.90987508E+01
  6.55825601E+03  2.26202022E+05  4.77908183E+04  4.64559155E+03  5.71629601E+03
%FLAG LENNARD_JONES_BCOEF                                                       
%FORMAT(5E16.8)                                                                 
  0.00000000E+00  0.00000000E+00  6.99746810E+02  0.00000000E+00  6.93079947E+02
  6.75612247E+02  0.00000000E+00  1.03606917E+02  1.06076943E+02  1.43076527E+01
  0.00000000E+00  5.89183300E+02  5.85549272E+02  8.66220817E+01  4.95732238E+02
  0.00000000E+00  8.51470647E+01  8.81685417E+01  1.14788417E+01  7.10161395E+01
  9.13231543E+00  0.00000000E+00  7.50714425E+02  7.36907417E+02  1.13252061E+02
  6.33305958E+02  9.36708259E+01  8.01323529E+02  0.00000000E+00  6.14502845E+02
  5.99015525E+02  9.40505980E+01  5.19163331E+02  7.81725398E+01  6.53361429E+02
  5.31102864E+02  0.00000000E+00  9.59185913E+01  9.85097219E+01  1.31591746E+01
  8.01410250E+01  1.05333009E+01  1.05031585E+02  8.73413012E+01  1.20953369E+01
  0.00000000E+00  1.79702257E+01  2.06278363E+01  1.93248820E+00  1.46567808E+01
  1.41762397E+00  2.09604198E+01  1.82891803E+01  1.73473071E+00  9.37598976E-02
  0.00000000E+00  1.25287818E+02  1.26919150E+02  1.76949863E+01  1.04986921E+02
  1.43076527E+01  1.36131731E+02  1.12529845E+02  1.63092814E+01  2.59456373E+00
  2.17257828E+01  0.00000000E+00  1.27682121E+03  1.22636552E+03  2.01468199E+02
  1.08210555E+03  1.69194406E+02  1.34630496E+03  1.08732781E+03  1.87626421E+02
  4.34187588E+01  2.38716853E+02  2.19561270E+03  0.00000000E+00  6.29300710E+02
  6.26720080E+02  9.21192136E+01  5.29252520E+02  7.54103785E+01  6.77220874E+02
  5.55666448E+02  8.51921330E+01  1.53505284E+01  1.11805549E+02  1.16041466E+03
  5.64885984E+02  0.00000000E+00  1.05648788E+02  1.07908863E+02  1.46638650E+01
  8.83744760E+01  1.17854122E+01  1.15327881E+02  9.56748258E+01  1.34932874E+01
  2.01792524E+00  1.81057616E+01  2.04498832E+02  9.40124296E+01  1.50233639E+01
  0.00000000E+00  1.16187983E+02  1.18043746E+02  1.63092814E+01  9.73010751E+01
  1.31591746E+01  1.26451907E+02  1.04660679E+02  1.50233639E+01  2.33864085E+00
  2.00642027E+01  2.22617115E+02  1.03580945E+02  1.66953734E+01  1.85196588E+01
%FLAG BONDS_INC_HYDROGEN                                                        
%FORMAT(10I8)                                                                   
      78      81       2      78      84       2      72      75       3      60
      63       7      48      51       9      48      54       9      33      36
      15      24      27      19      15      18      23       6       9      24
       6      12      24       0       3      27     168     171       2     168
     174       2     162     165       3     144     147       9     144     150
       9     135     138      30     129     132      32     120     123      19
     111     114      23     102     105      24     102     108      24     267
     270       2     267     273       2     261     264       3     246     249
       9     246     252       9     237     240      38     219     222      42
     210     213      19     201     204      23     192     195      24     192
     198      24     372     375      27     363     366       2     363     369
       2     357     360       3     345     348      38     327     330       2
     327     333       2     327     336       2     318     321      48     309
     312      19     300     303      23     291     294      24     291     297
      24
%FLAG BONDS_WITHOUT_HYDROGEN                                                    
%FORMAT(10I8)                                                                   
      87      90       1      72      78       4      72      87       5      66
      69       6      60      66       8      57      60       8      45      48
      10      45      57      11      42      45      12      42      69      13
      39      42      14      33      39      16      30      33      17      30
      69      18      24      30      20      24      78      21      21      24
      22      15      21      22      15      72       4       6      15      25
       3       6      26     177     180       1     162     168       4     162
     177       5     156     159      28     153     156      29     141     144
      10     141     153      11     135     141      31     129     135      33
     126     129      34     126     156      35     120     126      20     120
     168      21     117     120      22     111     117      22     111     162
       4     102     111      25      99     102      36      90      93      37
      90      96      37      90      99       1     276     279       1     261
     267       4     261     276       5     255     258       6     243     246
      10     243     255      11     237     243      39     231     234      28
     231     237      40     228     231      41     228     258      13     225
     228      14     219     225      43     216     219      44     216     258
      18     210     216      20     210     267      21     207     210      22
     201     207      22     201     261       4     192     201      25     189
     192      36     180     183      37     180     186      37     180     189
       1     357     363       4     357     372      45     351     354      28
     345     351      40     339     342      28     339     345      40     324
     327      46     324     339      47     318     324      49     315     318
      50     315     351      35     309     315      20     309     363      21
     306     309      22     300     306      22     300     357       4     291
     300      25     288     291      36     279     282      37     279     285
      37     279     288       1
%FLAG ANGLES_INC_HYDROGEN                                                       
%FORMAT(10I8)                                                                   
      81      78      84       3      75      72      78       5      75      72
      87       6      72      78      81       7      72      78      84       7
      63      60      66       9      57      60      63       9      51      48
      54      12      45      48      51      15      45      48      54      15
      36      33      39      22      30      33      36      26      27      24
      30      30      27      24      78      31      24      78      81      35
      24      78      84      35      21      24      27      37      18      15
      21      40      18      15      72      41      15      72      75       5
      12       6      15      44       9       6      12      45       9       6
      15      44       6      15      18      46       3       6       9      49
       3       6      12      49       0       3       6      51     171     168
     174       3     165     162     168       5     165     162     177       6
     162     168     171       7     162     168     174       7     147     144
     150      12     141     144     147      15     141     144     150      15
     138     135     141      54     132     129     135      57     129     135
     138      59     126     129     132      61     123     120     126      30
     123     120     168      31     120     168     171      35     120     168
     174      35     117     120     123      37     114     111     117      40
     114     111     162      41     111     162     165       5     108     102
     111      44     105     102     108      45     105     102     111      44
     102     111     114      46      99     102     105      67      99     102
     108      67     270     267     273       3     264     261     267       5
     264     261     276       6     261     267     270       7     261     267
     273       7     249     246     252      12     243     246     249      15
     243     246     252      15     240     237     243      72     231     237
     240      77     222     219     225      82     216     219     222      85
     213     210     216      30     213     210     267      31     210     267
     270      35     210     267     273      35     207     210     213      37
     204     201     207      40     204     201     261      41     201     261
     264       5     198     192     201      44     195     192     198      45
     195     192     201      44     192     201     204      46     189     192
     195      67     189     192     198      67     366     363     369       3
     360     357     363       5     360     357     372      89     357     363
     366       7     357     363     369       7     357     372     375      90
     348     345     351      77     339     345     348      77     333     327
     336       3     330     327     333       3     330     327     336       3
     324     327     330      93     324     327     333      93     324     327
     336      93     321     318     324      96     315     318     321     100
     312     309     315      30     312     309     363      31     309     363
     366      35     309     363     369      35     306     309     312      37
     303     300     306      40     303     300     357      41     300     357
     360       5     297     291     300      44     294     291     297      45
     294     291     300      44     291     300     303      46     288     291
     294      67     288     291     297      67
%FLAG ANGLES_WITHOUT_HYDROGEN                                                   
%FORMAT(10I8)                                                                   
      87      90      93       1      87      90      96       1      87      90
      99       2      78      72      87       4      72      87      90       8
      60      66      69      10      57      60      66      11      48      45
      57      13      45      42      69      14      45      57      60      16
      42      45      48      17      42      45      57      18      42      69
      66      19      39      42      45      20      39      42      69      21
      33      30      69      23      33      39      42      24      30      24
      78      25      30      33      39      27      30      69      42      28
      30      69      66      29      24      30      33      32      24      30
      69      33      24      78      72      34      21      15      72      36
      21      24      30      38      21      24      78      39      15      21
      24      42      15      72      78      43      15      72      87       4
       6      15      21      47       6      15      72      48       3       6
      15      50     177     180     183       1     177     180     186       1
     177     180     189       2     168     162     177       4     162     177
     180       8     153     156     159      52     144     141     153      13
     141     153     156      53     135     141     144      55     135     141
     153      56     129     126     156      58     129     135     141      60
     126     120     168      25     126     129     135      62     126     156
     153      63     126     156     159      64     120     126     129      65
     120     126     156      66     120     168     162      34     117     111
     162      36     117     120     126      38     117     120     168      39
     111     117     120      42     111     162     168      43     111     162
     177       4     102     111     117      47     102     111     162      48
      99     102     111      68      96      90      99       1      93      90
      96      69      93      90      99       1      90      99     102      70
     276     279     282       1     276     279     285       1     276     279
     288       2     267     261     276       4     261     276     279       8
     246     243     255      13     243     255     258      71     237     243
     246      73     237     243     255      74     234     231     237      75
     231     228     258      76     231     237     243      78     228     231
     234      79     228     231     237      80     228     258     255      19
     225     228     231      81     225     228     258      21     219     216
     258      83     219     225     228      84     216     210     267      25
     216     219     225      86     216     258     228      28     216     258
     255      29     210     216     219      87     210     216     258      33
     210     267     261      34     207     201     261      36     207     210
     216      38     207     210     267      39     201     207     210      42
     201     261     267      43     201     261     276       4     192     201
     207      47     192     201     261      48     189     192     201      68
     186     180     189       1     183     180     186      69     183     180
     189       1     180     189     192      70     363     357     372      88
     345     351     354      75     342     339     345      75     339     345
     351      91     327     324     339      92     324     339     342      94
     324     339     345      95     318     315     351      97     318     324
     327      98     318     324     339      99     315     309     363      25
     315     318     324     101     315     351     345     102     315     351
     354      64     309     315     318     103     309     315     351      66
     309     363     357      34     306     300     357      36     306     309
     315      38     306     309     363      39     300     306     309      42
     300     357     363      43     300     357     372      88     291     300
     306      47     291     300     357      48     288     291     300      68
     285     279     288       1     282     279     285      69     282     279
     288       1     279     288     291      70
%FLAG DIHEDRALS_INC_HYDROGEN                                                    
%FORMAT(10I8)                                                                   
      84      78      72      87       7      84      78     -72      87       8
      81      78      72      87       7      81      78     -72      87       8
      75      72      78      81      12      75      72      78      84      12
      75      72      87      90      13      63      60      66      69      18
      54      48      45      57      20      51      48      45      57      20
      45      57      60      63      18      42      45      48      51      20
      42      45      48      54      20      36      33      30      69      24
      36      33      39      42      25      30      24      78      81      12
      30      24      78      84      12      27      24      30      33      17
      27      24      30      69      17      27      24      78      72      12
      27      24      78      81      12      27      24      78      84      12
      24      30      33      36      24      24      78      72      75      12
      21      15      72      75       7      21      15     -72      75       8
      21      24      78      81       7      21      24     -78      81       8
      21      24      78      84       7      21      24     -78      84       8
      18      15      21      24      13      18      15      72      75      12
      18      15      72      78      12      18      15      72      87       7
      18      15     -72      87       8      15      21      24      27      13
      15      72      78      81      39      15      72      78      84      39
      12       6      15      18      12      12       6      15      21       7
      12       6      15      72      12       9       6      15      18      12
       9       6      15      21       7       9       6      15      72      12
       6      15      72      75      12       3       6      15      18       7
       0       3       6       9      46       0       3       6      12      46
       0       3       6      15      46     174     168     162     177       7
     174     168    -162     177       8     171     168     162     177       7
     171     168    -162     177       8     165     162     168     171      12
     165     162     168     174      12     165     162     177     180      13
     150     144     141     153      20     147     144     141     153      20
     138     135     141     144      27     138     135     141     153      27
     135     141     144     147      20     135     141     144     150      20
     132     129     126     156      48     132     129     135     138      49
     132     129     135     141      49     126     120     168     171      12
     126     120     168     174      12     126     129     135     138      49
     123     120     126     129      17     123     120     126     156      17
     123     120     168     162      12     123     120     168     171      12
     123     120     168     174      12     120     126     129     132      48
     120     168     162     165      12     117     111     162     165       7
     117     111    -162     165       8     117     120     168     171       7
     117     120    -168     171       8     117     120     168     174       7
     117     120    -168     174       8     114     111     117     120      13
     114     111     162     165      12     114     111     162     168      12
     114     111     162     177       7     114     111    -162     177       8
     111     117     120     123      13     111     162     168     171      39
     111     162     168     174      39     108     102     111     114      12
     108     102     111     117       7     108     102     111     162      12
     105     102     111     114      12     105     102     111     117       7
     105     102     111     162      12     102     111     162     165      12
      99     102     111     114       7      90      99     102     105      13
      90      99     102     108      13     273     267     261     276       7
     273     267    -261     276       8     270     267     261     276       7
     270     267    -261     276       8     264     261     267     270      12
     264     261     267     273      12     264     261     276     279      13
     252     246     243     255      20     249     246     243     255      20
     240     237     243     246      60     240     237     243     255      60
     237     243     246     249      20     237     243     246     252      20
     234     231     237     240      62     228     231     237     240      62
     222     219     216     258      24     222     219     225     228      25
     216     210     267     270      12     216     210     267     273      12
     213     210     216     219      17     213     210     216     258      17
     213     210     267     261      12     213     210     267     270      12
     213     210     267     273      12     210     216     219     222      24
     210     267     261     264      12     207     201     261     264       7
     207     201    -261     264       8     207     210     267     270       7
     207     210    -267     270       8     207     210     267     273       7
     207     210    -267     273       8     204     201     207     210      13
     204     201     261     264      12     204     201     261     267      12
     204     201     261     276       7     204     201    -261     276       8
     201     207     210     213      13     201     261     267     270      39
     201     261     267     273      39     198     192     201     204      12
     198     192     201     207       7     198     192     201     261      12
     195     192     201     204      12     195     192     201     207       7
     195     192     201     261      12     192     201     261     264      12
     189     192     201     204       7     180     189     192     195      13
     180     189     192     198      13     369     363     357     372       7
     369     363    -357     372       8     366     363     357     372       7
     366     363    -357     372       8     363     357     372     375       7
     363     357    -372     375      39     360     357     363     366      12
     360     357     363     369      12     360     357     372     375      46
     348     345     351     354      62     342     339     345     348      62
     336     327     324     339       8     333     327     324     339       8
     330     327     324     339       8     324     339     345     348      62
     321     318     315     351      48     321     318     324     327      49
     321     318     324     339      49     318     324     327     330      67
     318     324    -327     330      68     318     324     327     333      67
     318     324    -327     333      68     318     324     327     336      67
     318     324    -327     336      68     315     309     363     366      12
     315     309     363     369      12     315     351     345     348      62
     312     309     315     318      17     312     309     315     351      17
     312     309     363     357      12     312     309     363     366      12
     312     309     363     369      12     309     315     318     321      48
     309     363     357     360      12     306     300     357     360       7
     306     300    -357     360       8     306     309     363     366       7
     306     309    -363     366       8     306     309     363     369       7
     306     309    -363     369       8     303     300     306     309      13
     303     300     357     360      12     303     300     357     363      12
     303     300     357     372       7     303     300    -357     372       8
     300     306     309     312      13     300     357     363     366      39
     300     357     363     369      39     300     357     372     375       7
     300     357    -372     375      39     297     291     300     303      12
     297     291     300     306       7     297     291     300     357      12
     294     291     300     303      12     294     291     300     306       7
     294     291     300     357      12     291     300     357     360      12
     288     291     300     303       7     279     288     291     294      13
     279     288     291     297      13      57      66     -60     -63      75
      45      51     -48     -54      76      30      39     -33     -36      75
       3       9      -6     -12      74       3       9      -6     -15      74
      15      12      -6      -3      74       9      12      -6     -15      74
     141     147    -144    -150      76     129     141    -135    -138      75
     126     135    -129    -132      75      99     105    -102    -108      74
      99     105    -102    -111      74     111     108    -102     -99      74
     111     105    -102    -108      74     243     249    -246    -252      76
     231     243    -237    -240      76     216     225    -219    -222      75
     195     198    -192    -189      74     201     195    -192    -189      74
     201     198    -192    -189      74     201     195    -192    -198      74
     339     351    -345    -348      76     315     324    -318    -321      75
     294     297    -291    -288      74     300     294    -291    -288      74
     300     297    -291    -288      74     300     294    -291    -297      74
%FLAG DIHEDRALS_WITHOUT_HYDROGEN                                                
%FORMAT(10I8)                                                                   
      87      90      99     102       1      87      90     -99     102       2
      87      90     -99     102       3      87      90     -99     102       4
      87      90     -99     102       5      87      90     -99     102       6
      78      72      87      90       9      78      72     -87      90      10
      78      72     -87      90      11      72      87      90      93      14
      72      87      90      96      14      72      87      90      99      15
      72      87     -90      99      16      72      87     -90      99      14
      69      30      24      78      17      57      45      42      69      19
      57      60     -66      69      18      48      45      42      69      19
      48      45      57      60      21      45      42      69      66      22
      45      57     -60      66      18      42      45      57      60      21
      42      69     -66      60      23      39      33     -30      69      24
      39      42      45      48      19      39      42      45      57      19
      39      42      69      66      22      33      30      24      78      17
      33      30     -69      42      26      33      30      69      66      26
      33      39      42      45      27      33      39     -42      69      27
      30      24      78      72      12      30      33     -39      42      25
      30      69     -42      39      22      30      69      42      45      22
      30      69      66      60      23      24      21     -15      72      28
      24      21     -15      72      29      24      30      33      39      24
      24      30      69      42      26      24      30      69      66      26
      24      78      72      87      12      21      15     -72      78      12
      21      15      72      87      30      21      15     -72      87      31
      21      24      30      33      32      21      24     -30      33      33
      21      24     -30      33      34      21      24      30      69      17
      21      24     -78      72      12      15      21      24      30      35
      15      21     -24      30      29      15      21     -24      78      28
      15      21     -24      78      29      15      72     -78      24      36
      15      72     -78      24      37      15      72     -78      24      38
      15      72      87      90       9      15      72     -87      90      10
      15      72     -87      90      11       6      15      21      24      28
       6      15     -21      24      29       6      15      72      78      36
       6      15     -72      78      37       6      15     -72      78      38
       6      15      72      87      12       3       6      15      21      12
       3       6      15      72      40       3       6     -15      72      41
       3       6     -15      72      42       3       6     -15      72      43
       3       6     -15      72      44       3       6     -15      72      45
     177     180     189     192       1     177     180    -189     192       2
     177     180    -189     192       3     177     180    -189     192       4
     177     180    -189     192       5     177     180    -189     192       6
     168     162     177     180       9     168     162    -177     180      10
     168     162    -177     180      11     162     177     180     183      14
     162     177     180     186      14     162     177     180     189      15
     162     177    -180     189      16     162     177    -180     189      14
     156     126     120     168      17     144     141     153     156      21
     141     153     156     159      47     135     129     126     156      48
     135     141    -153     156      21     129     126     120     168      17
     129     126     156     153      50     129     126     156     159      50
     129     135     141     144      27     129     135    -141     153      27
     126     120     168     162      12     126     129     135     141      49
     126     156    -153     141      47     120     117    -111     162      28
     120     117    -111     162      29     120     126     129     135      48
     120     126     156     153      50     120     126     156     159      50
     120     168     162     177      12     117     111    -162     168      12
     117     111     162     177      30     117     111    -162     177      31
     117     120     126     129      51     117     120    -126     129      52
     117     120    -126     129      53     117     120    -126     129      54
     117     120     126     156      17     117     120    -168     162      12
     111     117     120     126      35     111     117    -120     126      29
     111     117    -120     168      28     111     117    -120     168      29
     111     162    -168     120      36     111     162    -168     120      37
     111     162    -168     120      38     111     162     177     180       9
     111     162    -177     180      10     111     162    -177     180      11
     102     111     117     120      28     102     111    -117     120      29
     102     111     162     168      36     102     111    -162     168      37
     102     111    -162     168      38     102     111     162     177      12
      99     102     111     117      12      99     102     111     162      40
      99     102    -111     162      41      99     102    -111     162      42
      99     102    -111     162      43      99     102    -111     162      44
      99     102    -111     162      45      96      90      99     102      55
      93      90      99     102      55      90      99     102     111      56
      90      99    -102     111      57      90      99    -102     111      58
      90      99    -102     111      59     276     279     288     291       1
     276     279    -288     291       2     276     279    -288     291       3
     276     279    -288     291       4     276     279    -288     291       5
     276     279    -288     291       6     267     261     276     279       9
     267     261    -276     279      10     267     261    -276     279      11
     261     276     279     282      14     261     276     279     285      14
     261     276     279     288      15     261     276    -279     288      16
     261     276    -279     288      14     258     216     210     267      17
     246     243     255     258      21     237     231     228     258      61
     237     243    -255     258      21     234     231     228     258      61
     234     231     237     243      62     231     228     258     255      22
     231     237     243     246      60     231     237    -243     255      60
     228     231     237     243      62     228     258    -255     243      23
     225     219    -216     258      24     225     228     231     234      61
     225     228     231     237      61     225     228     258     255      22
     219     216     210     267      17     219     216    -258     228      26
     219     216     258     255      26     219     225     228     231      27
     219     225    -228     258      27     216     210     267     261      12
     216     219    -225     228      25     216     258    -228     225      22
     216     258     228     231      22     216     258     255     243      23
     210     207    -201     261      28     210     207    -201     261      29
     210     216     219     225      24     210     216     258     228      26
     210     216     258     255      26     210     267     261     276      12
     207     201    -261     267      12     207     201     261     276      30
     207     201    -261     276      31     207     210     216     219      63
     207     210    -216     219      64     207     210    -216     219      65
     207     210     216     258      17     207     210    -267     261      12
     201     207     210     216      35     201     207    -210     216      29
     201     207    -210     267      28     201     207    -210     267      29
     201     261    -267     210      36     201     261    -267     210      37
     201     261    -267     210      38     201     261     276     279       9
     201     261    -276     279      10     201     261    -276     279      11
     192     201     207     210      28     192     201    -207     210      29
     192     201     261     267      36     192     201    -261     267      37
     192     201    -261     267      38     192     201     261     276      12
     189     192     201     207      12     189     192     201     261      40
     189     192    -201     261      41     189     192    -201     261      42
     189     192    -201     261      43     189     192    -201     261      44
     189     192    -201     261      45     186     180     189     192      55
     183     180     189     192      55     180     189     192     201      56
     180     189    -192     201      57     180     189    -192     201      58
     180     189    -192     201      59     351     315     309     363      17
     342     339     345     351      62     339     345     351     354      62
     327     324     339     342      66     327     324     339     345      66
     324     318     315     351      48     324     339    -345     351      62
     318     315     309     363      17     318     315     351     345      50
     318     315     351     354      50     318     324     339     342      66
     318     324    -339     342      69     318     324    -339     345      66
     315     309     363     357      12     315     318     324     327      49
     315     318     324     339      49     315     351    -345     339      62
     309     306    -300     357      28     309     306    -300     357      29
     309     315     318     324      48     309     315     351     345      50
     309     315     351     354      50     309     363     357     372      12
     306     300    -357     363      12     306     300     357     372      30
     306     300    -357     372      31     306     309     315     318      70
     306     309    -315     318      71     306     309    -315     318      72
     306     309    -315     318      73     306     309     315     351      17
     306     309    -363     357      12     300     306     309     315      35
     300     306    -309     315      29     300     306    -309     363      28
     300     306    -309     363      29     300     357    -363     309      36
     300     357    -363     309      37     300     357    -363     309      38
     291     300     306     309      28     291     300    -306     309      29
     291     300     357     363      36     291     300    -357     363      37
     291     300    -357     363      38     291     300     357     372      12
     288     291     300     306      12     288     291     300     357      40
     288     291    -300     357      41     288     291    -300     357      42
     288     291    -300     357      43     288     291    -300     357      44
     288     291    -300     357      45     285     279     288     291      55
     282     279     288     291      55     279     288     291     300      56
     279     288    -291     300      57     279     288    -291     300      58
     279     288    -291     300      59      30      42     -69     -66      74
      42      48     -45     -57      75      39      45     -42     -69      74
      69      33     -30     -24      76     126     153    -156    -159      77
     135     144    -141    -153      75     156     129    -126    -120      76
     228     216    -258    -255      74     246     237    -243    -255      75
     228     237    -231    -234      77     225     231    -228    -258      74
     258     219    -216    -210      76     315     345    -351    -354      77
     324     345    -339    -342      77     339     318    -324    -327      75
     351     318    -315    -309      76
%FLAG EXCLUDED_ATOMS_LIST                                                       
%FORMAT(10I8)                                                                   
       2       3       4       5       6       3       4       5       6       7
       8      25       4       5       6       7       8       9      25      26
      27      30       5       6       7       8      25       6       7       8
      25       7       8       9      10      11      25      26      27      28
      29      30      31       8       9      25      26      27      30       9
      10      11      12      24      25      26      27      28      29      30
      10      11      12      13      14      15      23      24      25      26
      27      28      29      30      11      12      24      25      27      28
      29      12      13      14      15      16      21      23      24      25
      27      28      29      13      14      15      16      23      24      27
      14      15      24      15      16      17      20      23      24      16
      17      18      19      20      21      23      24      17      18      19
      20      21      22      23      24      18      19      20      21      24
      19      20      20      21      22      23      24      22      23      24
      23      24      24      27      26      27      28      29      30      31
      32      33      34      27      28      29      30      31      28      29
      30      31      29      30      30      31      32      33      34      35
      32      33      34      35      36      37      38      33      34      35
      34      35      35      36      37      38      39      40      55      36
      37      38      39      40      41      55      56      57      60      37
      38      39      40      55      38      39      40      55      39      40
      41      42      43      55      56      57      58      59      60      61
      40      41      55      56      57      60      41      42      43      44
      53      55      56      57      58      59      60      42      43      44
      45      46      52      53      54      55      56      57      58      59
      60      43      44      53      55      57      58      59      44      45
      46      47      48      52      53      54      55      57      58      59
      45      46      47      48      49      52      53      54      57      46
      47      48      53      47      48      49      50      51      52      53
      48      49      52      49      50      51      52      53      54      50
      51      52      53      51      52      52      53      54      54      57
       0      56      57      58      59      60      61      62      63      64
      57      58      59      60      61      58      59      60      61      59
      60      60      61      62      63      64      65      62      63      64
      65      66      67      68      63      64      65      64      65      65
      66      67      68      69      70      88      66      67      68      69
      70      71      88      89      90      93      67      68      69      70
      88      68      69      70      88      69      70      71      72      73
      88      89      90      91      92      93      94      70      71      88
      89      90      93      71      72      73      74      87      88      89
      90      91      92      93      72      73      74      75      76      77
      86      87      88      89      90      91      92      93      73      74
      87      88      90      91      92      74      75      76      77      78
      82      86      87      88      90      91      92      75      76      77
      78      86      87      90      76      77      87      77      78      79
      80      86      87      78      79      80      81      82      86      87
      79      80      81      82      83      86      87      80      81      82
      87      81      82      83      84      85      86      87      82      83
      86      83      84      85      86      87      84      85      86      87
      85      86      86      87      90      89      90      91      92      93
      94      95      96      97      90      91      92      93      94      91
      92      93      94      92      93      93      94      95      96      97
      98      95      96      97      98      99     100     101      96      97
      98      97      98      98      99     100     101     102     103     120
      99     100     101     102     103     104     120     121     122     125
     100     101     102     103     120     101     102     103     120     102
     103     104     105     106     120     121     122     123     124     125
     126     103     104     120     121     122     125     104     105     106
     107     118     120     121     122     123     124     125     105     106
     107     108     109     116     118     119     120     121     122     123
     124     125     106     107     118     120     122     123     124     107
     108     109     110     114     116     117     118     119     120     122
     123     124     108     109     110     111     112     113     114     115
     116     118     119     122     109     110     114     118     110     111
     112     113     114     115     116     117     118     111     112     113
     114     115     116     112     113     114     113     114     114     115
     116     117     118     119     116     117     118     117     118     119
     118     119     119     122       0     121     122     123     124     125
     126     122     123     124     125     126     123     124     125     126
     124     125     125     126       0
%FLAG HBOND_ACOEF                                                               
%FORMAT(5E16.8)                                                                 

%FLAG HBOND_BCOEF                                                               
%FORMAT(5E16.8)                                                                 

%FLAG HBCUT                                                                     
%FORMAT(5E16.8)                                                                 

%FLAG AMBER_ATOM_TYPE                                                           
%FORMAT(20a4)                                                                   
HO  OH  CJ  H1  H1  CT  H1  OS  CT  H2  N*  C2  H5  NB  CB  CA  N2  H   H   NC  
CQ  H5  NC  CB  C7  H1  CT  HC  HC  OS  P   O2  O2  OS  CJ  H1  H1  CT  H1  OS  
CT  H2  N*  C1  H4  C1  HA  CA  N2  H   H   NC  C   O   C7  H1  CT  HC  HC  OS  
P   O2  O2  OS  CJ  H1  H1  CT  H1  OS  CT  H2  N*  CK  H5  NB  CB  C   O   NA  
H   CA  N2  H   H   NC  CB  C7  H1  CT  HC  HC  OS  P   O2  O2  OS  CJ  H1  H1  
CT  H1  OS  CT  H2  N*  CM  H4  CM  CT  HC  HC  HC  C   O   NA  H   C   O   C7  
H1  CT  HC  HC  OH  HO  
%FLAG TREE_CHAIN_CLASSIFICATION                                                 
%FORMAT(20a4)                                                                   
M   M   M   E   E   M   E   S   3   E   B   S   E   E   B   B   B   E   E   S   
S   E   E   B   M   E   B   E   E   M   M   E   E   M   M   E   E   M   E   S   
3   E   B   S   E   S   E   B   B   E   E   S   B   E   M   E   B   E   E   M   
M   E   E   M   M   E   E   M   E   S   3   E   B   S   E   E   B   B   E   B   
E   S   B   E   E   E   B   M   E   B   E   E   M   M   E   E   M   M   E   E   
M   E   S   3   E   B   S   E   S   3   E   E   E   B   E   B   E   B   E   M   
E   B   E   E   M   M   
%FLAG JOIN_ARRAY                                                                
%FORMAT(10I8)                                                                   
       0       0       0       0       0       0       0       0       0       0
       0       0       0       0       0       0       0       0       0       0
       0       0       0       0       0       0       0       0       0       0
       0       0       0       0       0       0       0       0       0       0
       0       0       0       0       0       0       0       0       0       0
       0       0       0       0       0       0       0       0       0       0
       0       0       0       0       0       0       0       0       0       0
       0       0       0       0       0       0       0       0       0       0
       0       0       0       0       0       0       0       0       0       0
       0       0       0       0       0       0       0       0       0       0
       0       0       0       0       0       0       0       0       0       0
       0       0       0       0       0       0       0       0       0       0
       0       0       0       0       0       0
%FLAG IROTAT                                                                    
%FORMAT(10I8)                                                                   
       0       0       0       0       0       0       0       0       0       0
       0       0       0       0       0       0       0       0       0       0
       0       0       0       0       0       0       0       0       0       0
       0       0       0       0       0       0       0       0       0       0
       0       0       0       0       0       0       0       0       0       0
       0       0       0       0       0       0       0       0       0       0
       0       0       0       0       0       0       0       0       0       0
       0       0       0       0       0       0       0       0       0       0
       0       0       0       0       0       0       0       0       0       0
       0       0       0       0       0       0       0       0       0       0
       0       0       0       0       0       0       0       0       0       0
       0       0       0       0       0       0       0       0       0       0
       0       0       0       0       0       0
%FLAG RADIUS_SET                                                                
%FORMAT(1a80)                                                                   
modified Bondi radii (mbondi)                                                   
%FLAG RADII                                                                     
%FORMAT(5E16.8)                                                                 
  8.00000000E-01  1.50000000E+00  1.70000000E+00  1.30000000E+00  1.30000000E+00
  1.70000000E+00  1.30000000E+00  1.50000000E+00  1.70000000E+00  1.30000000E+00
  1.55000000E+00  1.70000000E+00  1.30000000E+00  1.55000000E+00  1.70000000E+00
  1.70000000E+00  1.55000000E+00  1.30000000E+00  1.30000000E+00  1.55000000E+00
  1.70000000E+00  1.30000000E+00  1.55000000E+00  1.70000000E+00  1.70000000E+00
  1.30000000E+00  1.70000000E+00  1.30000000E+00  1.30000000E+00  1.50000000E+00
  1.85000000E+00  1.50000000E+00  1.50000000E+00  1.50000000E+00  1.70000000E+00
  1.30000000E+00  1.30000000E+00  1.70000000E+00  1.30000000E+00  1.50000000E+00
  1.70000000E+00  1.30000000E+00  1.55000000E+00  1.70000000E+00  1.30000000E+00
  1.70000000E+00  1.30000000E+00  1.70000000E+00  1.55000000E+00  1.30000000E+00
  1.30000000E+00  1.55000000E+00  1.70000000E+00  1.50000000E+00  1.70000000E+00
  1.30000000E+00  1.70000000E+00  1.30000000E+00  1.30000000E+00  1.50000000E+00
  1.85000000E+00  1.50000000E+00  1.50000000E+00  1.50000000E+00  1.70000000E+00
  1.30000000E+00  1.30000000E+00  1.70000000E+00  1.30000000E+00  1.50000000E+00
  1.70000000E+00  1.30000000E+00  1.55000000E+00  1.70000000E+00  1.30000000E+00
  1.55000000E+00  1.70000000E+00  1.70000000E+00  1.50000000E+00  1.55000000E+00
  1.30000000E+00  1.70000000E+00  1.55000000E+00  1.30000000E+00  1.30000000E+00
  1.55000000E+00  1.70000000E+00  1.70000000E+00  1.30000000E+00  1.70000000E+00
  1.30000000E+00  1.30000000E+00  1.50000000E+00  1.85000000E+00  1.50000000E+00
  1.50000000E+00  1.50000000E+00  1.70000000E+00  1.30000000E+00  1.30000000E+00
  1.70000000E+00  1.30000000E+00  1.50000000E+00  1.70000000E+00  1.30000000E+00
  1.55000000E+00  1.70000000E+00  1.30000000E+00  1.70000000E+00  1.70000000E+00
  1.30000000E+00  1.30000000E+00  1.30000000E+00  1.70000000E+00  1.50000000E+00
  1.55000000E+00  1.30000000E+00  1.70000000E+00  1.50000000E+00  1.70000000E+00
  1.30000000E+00  1.70000000E+00  1.30000000E+00  1.30000000E+00  1.50000000E+00
  8.00000000E-01
%FLAG SCREEN                                                                    
%FORMAT(5E16.8)                                                                 
  8.50000000E-01  8.50000000E-01  7.20000000E-01  8.50000000E-01  8.50000000E-01
  7.20000000E-01  8.50000000E-01  8.50000000E-01  7.20000000E-01  8.50000000E-01
  7.90000000E-01  7.20000000E-01  8.50000000E-01  7.90000000E-01  7.20000000E-01
  7.20000000E-01  7.90000000E-01  8.50000000E-01  8.50000000E-01  7.90000000E-01
  7.20000000E-01  8.50000000E-01  7.90000000E-01  7.20000000E-01  7.20000000E-01
  8.50000000E-01  7.20000000E-01  8.50000000E-01  8.50000000E-01  8.50000000E-01
  8.60000000E-01  8.50000000E-01  8.50000000E-01  8.50000000E-01  7.20000000E-01
  8.50000000E-01  8.50000000E-01  7.20000000E-01  8.50000000E-01  8.50000000E-01
  7.20000000E-01  8.50000000E-01  7.90000000E-01  7.20000000E-01  8.50000000E-01
  7.20000000E-01  8.50000000E-01  7.20000000E-01  7.90000000E-01  8.50000000E-01
  8.50000000E-01  7.90000000E-01  7.20000000E-01  8.50000000E-01  7.20000000E-01
  8.50000000E-01  7.20000000E-01  8.50000000E-01  8.50000000E-01  8.50000000E-01
  8.60000000E-01  8.50000000E-01  8.50000000E-01  8.50000000E-01  7.20000000E-01
  8.50000000E-01  8.50000000E-01  7.20000000E-01  8.50000000E-01  8.50000000E-01
  7.20000000E-01  8.50000000E-01  7.90000000E-01  7.20000000E-01  8.50000000E-01
  7.90000000E-01  7.20000000E-01  7.20000000E-01  8.50000000E-01  7.90000000E-01
  8.50000000E-01  7.20000000E-01  7.90000000E-01  8.50000000E-01  8.50000000E-01
  7.90000000E-01  7.20000000E-01  7.20000000E-01  8.50000000E-01  7.20000000E-01
  8.50000000E-01  8.50000000E-01  8.50000000E-01  8.60000000E-01  8.50000000E-01
  8.50000000E-01  8.50000000E-01  7.20000000E-01  8.50000000E-01  8.50000000E-01
  7.20000000E-01  8.50000000E-01  8.50000000E-01  7.20000000E-01  8.50000000E-01
  7.90000000E-01  7.20000000E-01  8.50000000E-01  7.20000000E-01  7.20000000E-01
  8.50000000E-01  8.50000000E-01  8.50000000E-01  7.20000000E-01  8.50000000E-01
  7.90000000E-01  8.50000000E-01  7.20000000E-01  8.50000000E-01  7.20000000E-01
  8.50000000E-01  7.20000000E-01  8.50000000E-01  8.50000000E-01  8.50000000E-01
  8.50000000E-01
%FLAG IPOL                                                                      
%FORMAT(1I8)                                                                    
       0
