%VERSION  VERSION_STAMP = V0001.000  DATE = 08/25/26  02:05:30                  
%FLAG TITLE                                                                     
%FORMAT(20a4)                                                                   
default_name                                                                    
%FLAG POINTERS                                                                  
%FORMAT(10I8)                                                                   
     760      13     268     550     636     844    1186    1588       0       0
    4214      24     550     844    1588      47      97      64      27       0
       0       0       0       0       0       0       0       0      33       0
       0
%FLAG ATOM_NAME                                                                 
%FORMAT(20a4)                                                                   
P   OP1 OP2 O5' C5' H5' H5''C4' H4' O4' C1' H1' N1  C6  H6  C5  H5  C4  N4  H41 
H42 N3  C2  O2  C3' H3' C2' H2' H2''O3' P   OP1 OP2 O5' C5' H5' H5''C4' H4' O4' 
C1' H1' N9  C8  H8  N7  C5  C6  O6  N1  H1  C2  N2  H21 H22 N3  C4  C3' H3' C2' 
H2' H2''O3' P   OP1 OP2 O5' C5' H5' H5''C4' H4' O4' C1' H1' N1  C6  H6  C5  H5  
C4  N4  H41 H42 N3  C2  O2  C3' H3' C2' H2' H2''O3' P   OP1 OP2 O5' C5' H5' H5''
C4' H4' O4' C1' H1' N9  C8  H8  N7  C5  C6  O6  N1  H1  C2  N2  H21 H22 N3  C4  
C3' H3' C2' H2' H2''O3' P   OP1 OP2 O5' C5' H5' H5''C4' H4' O4' C1' H1' N9  C8  
H8  N7  C5  C6  N6  H61 H62 N1  C2  H2  N3  C4  C3' H3' C2' H2' H2''O3' P   OP1 
OP2 O5' C5' H5' H5''C4' H4' O4' C1' H1' N9  C8  H8  N7  C5  C6  N6  H61 H62 N1  
C2  H2  N3  C4  C3' H3' C2' H2' H2''O3' P   OP1 OP2 O5' C5' H5' H5''C4' H4' O4' 
C1' H1' N1  C6  H6  C5  C7  H71 H72 H73 C4  O4  N3  H3  C2  O2  C3' H3' C2' H2' 
H2''O3' P   OP1 OP2 O5' C5' H5' H5''C4' H4' O4' C1' H1' N1  C6  H6  C5  C7  H71 
H72 H73 C4  O4  N3  H3  C2  O2  C3' H3' C2' H2' H2''O3' P   OP1 OP2 O5' C5' H5' 
H5''C4' H4' O4' C1' H1' N1  C6  H6  C5  H5  C4  N4  H41 H42 N3  C2  O2  C3' H3' 
C2' H2' H2''O3' P   OP1 OP2 O5' C5' H5' H5''C4' H4' O4' C1' H1' N9  C8  H8  N7  
C5  C6  O6  N1  H1  C2  N2  H21 H22 N3  C4  C3' H3' C2' H2' H2''O3' P   OP1 OP2 
O5' C5' H5' H5''C4' H4' O4' C1' H1' N1  C6  H6  C5  H5  C4  N4  H41 H42 N3  C2  
O2  C3' H3' C2' H2' H2''O3' P   OP1 OP2 O5' C5' H5' H5''C4' H4' O4' C1' H1' N9  
C8  H8  N7  C5  C6  O6  N1  H1  C2  N2  H21 H22 N3  C4  C3' H3' C2' H2' H2''O3' 
P   OP1 OP2 O5' C5' H5' H5''C4' H4' O4' C1' H1' N1  C6  H6  C5  H5  C4  N4  H41 
H42 N3  C2  O2  C3' H3' C2' H2' H2''O3' P   OP1 OP2 O5' C5' H5' H5''C4' H4' O4' 
C1' H1' N9  C8  H8  N7  C5  C6  O6  N1  H1  C2  N2  H21 H22 N3  C4  C3' H3' C2' 
H2' H2''O3' P   OP1 OP2 O5' C5' H5' H5''C4' H4' O4' C1' H1' N1  C6  H6  C5  H5  
C4  N4  H41 H42 N3  C2  O2  C3' H3' C2' H2' H2''O3' P   OP1 OP2 O5' C5' H5' H5''
C4' H4' O4' C1' H1' N9  C8  H8  N7  C5  C6  O6  N1  H1  C2  N2  H21 H22 N3  C4  
C3' H3' C2' H2' H2''O3' P   OP1 OP2 O5' C5' H5' H5''C4' H4' O4' C1' H1' N9  C8  
H8  N7  C5  C6  N6  H61 H62 N1  C2  H2  N3  C4  C3' H3' C2' H2' H2''O3' P   OP1 
OP2 O5' C5' H5' H5''C4' H4' O4' C1' H1' N9  C8  H8  N7  C5  C6  N6  H61 H62 N1  
C2  H2  N3  C4  C3' H3' C2' H2' H2''O3' P   OP1 OP2 O5' C5' H5' H5''C4' H4' O4' 
C1' H1' N1  C6  H6  C5  C7  H71 H72 H73 C4  O4  N3  H3  C2  O2  C3' H3' C2' H2' 
H2''O3' P   OP1 OP2 O5' C5' H5' H5''C4' H4' O4' C1' H1' N1  C6  H6  C5  C7  H71 
H72 H73 C4  O4  N3  H3  C2  O2  C3' H3' C2' H2' H2''O3' P   OP1 OP2 O5' C5' H5' 
H5''C4' H4' O4' C1' H1' N1  C6  H6  C5  H5  C4  N4  H41 H42 N3  C2  O2  C3' H3' 
C2' H2' H2''O3' P   OP1 OP2 O5' C5' H5' H5''C4' H4' O4' C1' H1' N9  C8  H8  N7  
C5  C6  O6  N1  H1  C2  N2  H21 H22 N3  C4  C3' H3' C2' H2' H2''O3' P   OP1 OP2 
O5' C5' H5' H5''C4' H4' O4' C1' H1' N1  C6  H6  C5  H5  C4  N4  H41 H42 N3  C2  
O2  C3' H3' C2' H2' H2''O3' P   OP1 OP2 O5' C5' H5' H5''C4' H4' O4' C1' H1' N9  
C8  H8  N7  C5  C6  O6  N1  H1  C2  N2  H21 H22 N3  C4  C3' H3' C2' H2' H2''O3' 
%FLAG CHARGE                                                                    
%FORMAT(5E16.8)                                                                 
  2.12453796E+01 -1.41423270E+01 -1.41423270E+01 -9.02732742E+00 -1.25733870E-01
  1.37396142E+00  1.37396142E+00  2.96841267E+00  2.14294248E+00 -6.72585093E+00
 -2.11378680E-01  3.57703749E+00 -6.17735970E-01 -3.33468090E-01  4.17837339E+00
 -9.51568506E+00  3.39481449E+00  1.53777990E+01 -1.78086538E+01  7.86110022E+00
  7.86110022E+00 -1.41186380E+01  1.45031286E+01 -1.19319620E+01  1.29924999E+00
  1.79489655E+00 -1.55618442E+00  1.30836114E+00  1.30836114E+00 -9.53390736E+00
  2.12453796E+01 -1.41423270E+01 -1.41423270E+01 -9.02732742E+00 -1.25733870E-01
  1.37396142E+00  1.37396142E+00  2.96841267E+00  2.14294248E+00 -6.72585093E+00
  6.52358340E-01  3.18161358E+00  1.05142671E+00  1.34116128E+00  3.63899331E+00
 -1.04322668E+01  3.62805993E+00  8.96172714E+00 -1.03848888E+01 -9.20772819E+00
  6.41424960E+00  1.35428134E+01 -1.68191829E+01  7.71714405E+00  7.71714405E+00
 -1.20923183E+01  3.30552522E+00  1.29924999E+00  1.79489655E+00 -1.55618442E+00
  1.30836114E+00  1.30836114E+00 -9.53390736E+00  2.12453796E+01 -1.41423270E+01
 -1.41423270E+01 -9.02732742E+00 -1.25733870E-01  1.37396142E+00  1.37396142E+00
  2.96841267E+00  2.14294248E+00 -6.72585093E+00 -2.11378680E-01  3.57703749E+00
 -6.17735970E-01 -3.33468090E-01  4.17837339E+00 -9.51568506E+00  3.39481449E+00
  1.53777990E+01 -1.78086538E+01  7.86110022E+00  7.86110022E+00 -1.41186380E+01
  1.45031286E+01 -1.19319620E+01  1.29924999E+00  1.79489655E+00 -1.55618442E+00
  1.30836114E+00  1.30836114E+00 -9.53390736E+00  2.12453796E+01 -1.41423270E+01
 -1.41423270E+01 -9.02732742E+00 -1.25733870E-01  1.37396142E+00  1.37396142E+00
  2.96841267E+00  2.14294248E+00 -6.72585093E+00  6.52358340E-01  3.18161358E+00
  1.05142671E+00  1.34116128E+00  3.63899331E+00 -1.04322668E+01  3.62805993E+00
  8.96172714E+00 -1.03848888E+01 -9.20772819E+00  6.41424960E+00  1.35428134E+01
 -1.68191829E+01  7.71714405E+00  7.71714405E+00 -1.20923183E+01  3.30552522E+00
  1.29924999E+00  1.79489655E+00 -1.55618442E+00  1.30836114E+00  1.30836114E+00
 -9.53390736E+00  2.12453796E+01 -1.41423270E+01 -1.41423270E+01 -9.02732742E+00
 -1.25733870E-01  1.37396142E+00  1.37396142E+00  2.96841267E+00  2.14294248E+00
 -6.72585093E+00  7.85381130E-01  3.34925874E+00 -4.88357640E-01  2.92832361E+00
  3.42032571E+00 -1.12522703E+01  1.32111675E+00  1.25679203E+01 -1.66242043E+01
  7.59323241E+00  7.59323241E+00 -1.38926815E+01  1.04158667E+01  1.08969354E+00
 -1.35154799E+01  6.92447400E+00  1.29924999E+00  1.79489655E+00 -1.55618442E+00
  1.30836114E+00  1.30836114E+00 -9.53390736E+00  2.12453796E+01 -1.41423270E+01
 -1.41423270E+01 -9.02732742E+00 -1.25733870E-01  1.37396142E+00  1.37396142E+00
  2.96841267E+00  2.14294248E+00 -6.72585093E+00  7.85381130E-01  3.34925874E+00
 -4.88357640E-01  2.92832361E+00  3.42032571E+00 -1.12522703E+01  1.32111675E+00
  1.25679203E+01 -1.66242043E+01  7.59323241E+00  7.59323241E+00 -1.38926815E+01
  1.04158667E+01  1.08969354E+00 -1.35154799E+01  6.92447400E+00  1.29924999E+00
  1.79489655E+00 -1.55618442E+00  1.30836114E+00  1.30836114E+00 -9.53390736E+00
  2.12453796E+01 -1.41423270E+01 -1.41423270E+01 -9.02732742E+00 -1.25733870E-01
  1.37396142E+00  1.37396142E+00  2.96841267E+00  2.14294248E+00 -6.72585093E+00
  1.23911640E+00  3.28730292E+00 -4.35512970E-01 -4.02530607E+00  4.75055361E+00
  4.55557500E-02 -4.13463987E+00  1.40311710E+00  1.40311710E+00  1.40311710E+00
  9.46466262E+00 -1.01370655E+01 -7.90847820E+00  6.23202660E+00  1.03447997E+01
 -1.07165346E+01  1.29924999E+00  1.79489655E+00 -1.55618442E+00  1.30836114E+00
  1.30836114E+00 -9.53390736E+00  2.12453796E+01 -1.41423270E+01 -1.41423270E+01
 -9.02732742E+00 -1.25733870E-01  1.37396142E+00  1.37396142E+00  2.96841267E+00
  2.14294248E+00 -6.72585093E+00  1.23911640E+00  3.28730292E+00 -4.35512970E-01
 -4.02530607E+00  4.75055361E+00  4.55557500E-02 -4.13463987E+00  1.40311710E+00
  1.40311710E+00  1.40311710E+00  9.46466262E+00 -1.01370655E+01 -7.90847820E+00
  6.23202660E+00  1.03447997E+01 -1.07165346E+01  1.29924999E+00  1.79489655E+00
 -1.55618442E+00  1.30836114E+00  1.30836114E+00 -9.53390736E+00  2.12453796E+01
 -1.41423270E+01 -1.41423270E+01 -9.02732742E+00 -1.25733870E-01  1.37396142E+00
  1.37396142E+00  2.96841267E+00  2.14294248E+00 -6.72585093E+00 -2.11378680E-01
  3.57703749E+00 -6.17735970E-01 -3.33468090E-01  4.17837339E+00 -9.51568506E+00
  3.39481449E+00  1.53777990E+01 -1.78086538E+01  7.86110022E+00  7.86110022E+00
 -1.41186380E+01  1.45031286E+01 -1.19319620E+01  1.29924999E+00  1.79489655E+00
 -1.55618442E+00  1.30836114E+00  1.30836114E+00 -9.53390736E+00  2.12453796E+01
 -1.41423270E+01 -1.41423270E+01 -9.02732742E+00 -1.25733870E-01  1.37396142E+00
  1.37396142E+00  2.96841267E+00  2.14294248E+00 -6.72585093E+00  6.52358340E-01
  3.18161358E+00  1.05142671E+00  1.34116128E+00  3.63899331E+00 -1.04322668E+01
  3.62805993E+00  8.96172714E+00 -1.03848888E+01 -9.20772819E+00  6.41424960E+00
  1.35428134E+01 -1.68191829E+01  7.71714405E+00  7.71714405E+00 -1.20923183E+01
  3.30552522E+00  1.29924999E+00  1.79489655E+00 -1.55618442E+00  1.30836114E+00
  1.30836114E+00 -9.53390736E+00  2.12453796E+01 -1.41423270E+01 -1.41423270E+01
 -9.02732742E+00 -1.25733870E-01  1.37396142E+00  1.37396142E+00  2.96841267E+00
  2.14294248E+00 -6.72585093E+00 -2.11378680E-01  3.57703749E+00 -6.17735970E-01
 -3.33468090E-01  4.17837339E+00 -9.51568506E+00  3.39481449E+00  1.53777990E+01
 -1.78086538E+01  7.86110022E+00  7.86110022E+00 -1.41186380E+01  1.45031286E+01
 -1.19319620E+01  1.29924999E+00  1.79489655E+00 -1.55618442E+00  1.30836114E+00
  1.30836114E+00 -9.53390736E+00  2.12453796E+01 -1.41423270E+01 -1.41423270E+01
 -9.02732742E+00 -1.25733870E-01  1.37396142E+00  1.37396142E+00  2.96841267E+00
  2.14294248E+00 -6.72585093E+00  6.52358340E-01  3.18161358E+00  1.05142671E+00
  1.34116128E+00  3.63899331E+00 -1.04322668E+01  3.62805993E+00  8.96172714E+00
 -1.03848888E+01 -9.20772819E+00  6.41424960E+00  1.35428134E+01 -1.68191829E+01
  7.71714405E+00  7.71714405E+00 -1.20923183E+01  3.30552522E+00  1.29924999E+00
  1.79489655E+00 -1.55618442E+00  1.30836114E+00  1.30836114E+00 -9.53390736E+00
  2.12453796E+01 -1.41423270E+01 -1.41423270E+01 -9.02732742E+00 -1.25733870E-01
  1.37396142E+00  1.37396142E+00  2.96841267E+00  2.14294248E+00 -6.72585093E+00
 -2.11378680E-01  3.57703749E+00 -6.17735970E-01 -3.33468090E-01  4.17837339E+00
 -9.51568506E+00  3.39481449E+00  1.53777990E+01 -1.78086538E+01  7.86110022E+00
  7.86110022E+00 -1.41186380E+01  1.45031286E+01 -1.19319620E+01  1.29924999E+00
  1.79489655E+00 -1.55618442E+00  1.30836114E+00  1.30836114E+00 -9.53390736E+00
  2.12453796E+01 -1.41423270E+01 -1.41423270E+01 -9.02732742E+00 -1.25733870E-01
  1.37396142E+00  1.37396142E+00  2.96841267E+00  2.14294248E+00 -6.72585093E+00
  6.52358340E-01  3.18161358E+00  1.05142671E+00  1.34116128E+00  3.63899331E+00
 -1.04322668E+01  3.62805993E+00  8.96172714E+00 -1.03848888E+01 -9.20772819E+00
  6.41424960E+00  1.35428134E+01 -1.68191829E+01  7.71714405E+00  7.71714405E+00
 -1.20923183E+01  3.30552522E+00  1.29924999E+00  1.79489655E+00 -1.55618442E+00
  1.30836114E+00  1.30836114E+00 -9.53390736E+00  2.12453796E+01 -1.41423270E+01
 -1.41423270E+01 -9.02732742E+00 -1.25733870E-01  1.37396142E+00  1.37396142E+00
  2.96841267E+00  2.14294248E+00 -6.72585093E+00 -2.11378680E-01  3.57703749E+00
 -6.17735970E-01 -3.33468090E-01  4.17837339E+00 -9.51568506E+00  3.39481449E+00
  1.53777990E+01 -1.78086538E+01  7.86110022E+00  7.86110022E+00 -1.41186380E+01
  1.45031286E+01 -1.19319620E+01  1.29924999E+00  1.79489655E+00 -1.55618442E+00
  1.30836114E+00  1.30836114E+00 -9.53390736E+00  2.12453796E+01 -1.41423270E+01
 -1.41423270E+01 -9.02732742E+00 -1.25733870E-01  1.37396142E+00  1.37396142E+00
  2.96841267E+00  2.14294248E+00 -6.72585093E+00  6.52358340E-01  3.18161358E+00
  1.05142671E+00  1.34116128E+00  3.63899331E+00 -1.04322668E+01  3.62805993E+00
  8.96172714E+00 -1.03848888E+01 -9.20772819E+00  6.41424960E+00  1.35428134E+01
 -1.68191829E+01  7.71714405E+00  7.71714405E+00 -1.20923183E+01  3.30552522E+00
  1.29924999E+00  1.79489655E+00 -1.55618442E+00  1.30836114E+00  1.30836114E+00
 -9.53390736E+00  2.12453796E+01 -1.41423270E+01 -1.41423270E+01 -9.02732742E+00
 -1.25733870E-01  1.37396142E+00  1.37396142E+00  2.96841267E+00  2.14294248E+00
 -6.72585093E+00  7.85381130E-01  3.34925874E+00 -4.88357640E-01  2.92832361E+00
  3.42032571E+00 -1.12522703E+01  1.32111675E+00  1.25679203E+01 -1.66242043E+01
  7.59323241E+00  7.59323241E+00 -1.38926815E+01  1.04158667E+01  1.08969354E+00
 -1.35154799E+01  6.92447400E+00  1.29924999E+00  1.79489655E+00 -1.55618442E+00
  1.30836114E+00  1.30836114E+00 -9.53390736E+00  2.12453796E+01 -1.41423270E+01
 -1.41423270E+01 -9.02732742E+00 -1.25733870E-01  1.37396142E+00  1.37396142E+00
  2.96841267E+00  2.14294248E+00 -6.72585093E+00  7.85381130E-01  3.34925874E+00
 -4.88357640E-01  2.92832361E+00  3.42032571E+00 -1.12522703E+01  1.32111675E+00
  1.25679203E+01 -1.66242043E+01  7.59323241E+00  7.59323241E+00 -1.38926815E+01
  1.04158667E+01  1.08969354E+00 -1.35154799E+01  6.92447400E+00  1.29924999E+00
  1.79489655E+00 -1.55618442E+00  1.30836114E+00  1.30836114E+00 -9.53390736E+00
  2.12453796E+01 -1.41423270E+01 -1.41423270E+01 -9.02732742E+00 -1.25733870E-01
  1.37396142E+00  1.37396142E+00  2.96841267E+00  2.14294248E+00 -6.72585093E+00
  1.23911640E+00  3.28730292E+00 -4.35512970E-01 -4.02530607E+00  4.75055361E+00
  4.55557500E-02 -4.13463987E+00  1.40311710E+00  1.40311710E+00  1.40311710E+00
  9.46466262E+00 -1.01370655E+01 -7.90847820E+00  6.23202660E+00  1.03447997E+01
 -1.07165346E+01  1.29924999E+00  1.79489655E+00 -1.55618442E+00  1.30836114E+00
  1.30836114E+00 -9.53390736E+00  2.12453796E+01 -1.41423270E+01 -1.41423270E+01
 -9.02732742E+00 -1.25733870E-01  1.37396142E+00  1.37396142E+00  2.96841267E+00
  2.14294248E+00 -6.72585093E+00  1.23911640E+00  3.28730292E+00 -4.35512970E-01
 -4.02530607E+00  4.75055361E+00  4.55557500E-02 -4.13463987E+00  1.40311710E+00
  1.40311710E+00  1.40311710E+00  9.46466262E+00 -1.01370655E+01 -7.90847820E+00
  6.23202660E+00  1.03447997E+01 -1.07165346E+01  1.29924999E+00  1.79489655E+00
 -1.55618442E+00  1.30836114E+00  1.30836114E+00 -9.53390736E+00  2.12453796E+01
 -1.41423270E+01 -1.41423270E+01 -9.02732742E+00 -1.25733870E-01  1.37396142E+00
  1.37396142E+00  2.96841267E+00  2.14294248E+00 -6.72585093E+00 -2.11378680E-01
  3.57703749E+00 -6.17735970E-01 -3.33468090E-01  4.17837339E+00 -9.51568506E+00
  3.39481449E+00  1.53777990E+01 -1.78086538E+01  7.86110022E+00  7.86110022E+00
 -1.41186380E+01  1.45031286E+01 -1.19319620E+01  1.29924999E+00  1.79489655E+00
 -1.55618442E+00  1.30836114E+00  1.30836114E+00 -9.53390736E+00  2.12453796E+01
 -1.41423270E+01 -1.41423270E+01 -9.02732742E+00 -1.25733870E-01  1.37396142E+00
  1.37396142E+00  2.96841267E+00  2.14294248E+00 -6.72585093E+00  6.52358340E-01
  3.18161358E+00  1.05142671E+00  1.34116128E+00  3.63899331E+00 -1.04322668E+01
  3.62805993E+00  8.96172714E+00 -1.03848888E+01 -9.20772819E+00  6.41424960E+00
  1.35428134E+01 -1.68191829E+01  7.71714405E+00  7.71714405E+00 -1.20923183E+01
  3.30552522E+00  1.29924999E+00  1.79489655E+00 -1.55618442E+00  1.30836114E+00
  1.30836114E+00 -9.53390736E+00  2.12453796E+01 -1.41423270E+01 -1.41423270E+01
 -9.02732742E+00 -1.25733870E-01  1.37396142E+00  1.37396142E+00  2.96841267E+00
  2.14294248E+00 -6.72585093E+00 -2.11378680E-01  3.57703749E+00 -6.17735970E-01
 -3.33468090E-01  4.17837339E+00 -9.51568506E+00  3.39481449E+00  1.53777990E+01
 -1.78086538E+01  7.86110022E+00  7.86110022E+00 -1.41186380E+01  1.45031286E+01
 -1.19319620E+01  1.29924999E+00  1.79489655E+00 -1.55618442E+00  1.30836114E+00
  1.30836114E+00 -9.53390736E+00  2.12453796E+01 -1.41423270E+01 -1.41423270E+01
 -9.02732742E+00 -1.25733870E-01  1.37396142E+00  1.37396142E+00  2.96841267E+00
  2.14294248E+00 -6.72585093E+00  6.52358340E-01  3.18161358E+00  1.05142671E+00
  1.34116128E+00  3.63899331E+00 -1.04322668E+01  3.62805993E+00  8.96172714E+00
 -1.03848888E+01 -9.20772819E+00  6.41424960E+00  1.35428134E+01 -1.68191829E+01
  7.71714405E+00  7.71714405E+00 -1.20923183E+01  3.30552522E+00  1.29924999E+00
  1.79489655E+00 -1.55618442E+00  1.30836114E+00  1.30836114E+00 -9.53390736E+00
%FLAG ATOMIC_NUMBER                                                             
%FORMAT(10I8)                                                                   
      15       8       8       8       6       1       1       6       1       8
       6       1       7       6       1       6       1       6       7       1
       1       7       6       8       6       1       6       1       1       8
      15       8       8       8       6       1       1       6       1       8
       6       1       7       6       1       7       6       6       8       7
       1       6       7       1       1       7       6       6       1       6
       1       1       8      15       8       8       8       6       1       1
       6       1       8       6       1       7       6       1       6       1
       6       7       1       1       7       6       8       6       1       6
       1       1       8      15       8       8       8       6       1       1
       6       1       8       6       1       7       6       1       7       6
       6       8       7       1       6       7       1       1       7       6
       6       1       6       1       1       8      15       8       8       8
       6       1       1       6       1       8       6       1       7       6
       1       7       6       6       7       1       1       7       6       1
       7       6       6       1       6       1       1       8      15       8
       8       8       6       1       1       6       1       8       6       1
       7       6       1       7       6       6       7       1       1       7
       6       1       7       6       6       1       6       1       1       8
      15       8       8       8       6       1       1       6       1       8
       6       1       7       6       1       6       6       1       1       1
       6       8       7       1       6       8       6       1       6       1
       1       8      15       8       8       8       6       1       1       6
       1       8       6       1       7       6       1       6       6       1
       1       1       6       8       7       1       6       8       6       1
       6       1       1       8      15       8       8       8       6       1
       1       6       1       8       6       1       7       6       1       6
       1       6       7       1       1       7       6       8       6       1
       6       1       1       8      15       8       8       8       6       1
       1       6       1       8       6       1       7       6       1       7
       6       6       8       7       1       6       7       1       1       7
       6       6       1       6       1       1       8      15       8       8
       8       6       1       1       6       1       8       6       1       7
       6       1       6       1       6       7       1       1       7       6
       8       6       1       6       1       1       8      15       8       8
       8       6       1       1       6       1       8       6       1       7
       6       1       7       6       6       8       7       1       6       7
       1       1       7       6       6       1       6       1       1       8
      15       8       8       8       6       1       1       6       1       8
       6       1       7       6       1       6       1       6       7       1
       1       7       6       8       6       1       6       1       1       8
      15       8       8       8       6       1       1       6       1       8
       6       1       7       6       1       7       6       6       8       7
       1       6       7       1       1       7       6       6       1       6
       1       1       8      15       8       8       8       6       1       1
       6       1       8       6       1       7       6       1       6       1
       6       7       1       1       7       6       8       6       1       6
       1       1       8      15       8       8       8       6       1       1
       6       1       8       6       1       7       6       1       7       6
       6       8       7       1       6       7       1       1       7       6
       6       1       6       1       1       8      15       8       8       8
       6       1       1       6       1       8       6       1       7       6
       1       7       6       6       7       1       1       7       6       1
       7       6       6       1       6       1       1       8      15       8
       8       8       6       1       1       6       1       8       6       1
       7       6       1       7       6       6       7       1       1       7
       6       1       7       6       6       1       6       1       1       8
      15       8       8       8       6       1       1       6       1       8
       6       1       7       6       1       6       6       1       1       1
       6       8       7       1       6       8       6       1       6       1
       1       8      15       8       8       8       6       1       1       6
       1       8       6       1       7       6       1       6       6       1
       1       1       6       8       7       1       6       8       6       1
       6       1       1       8      15       8       8       8       6       1
       1       6       1       8       6       1       7       6       1       6
       1       6       7       1       1       7       6       8       6       1
       6       1       1       8      15       8       8       8       6       1
       1       6       1       8       6       1       7       6       1       7
       6       6       8       7       1       6       7       1       1       7
       6       6       1       6       1       1       8      15       8       8
       8       6       1       1       6       1       8       6       1       7
       6       1       6       1       6       7       1       1       7       6
       8       6       1       6       1       1       8      15       8       8
       8       6       1       1       6       1       8       6       1       7
       6       1       7       6       6       8       7       1       6       7
       1       1       7       6       6       1       6       1       1       8
%FLAG MASS                                                                      
%FORMAT(5E16.8)                                                                 
  3.09700000E+01  1.60000000E+01  1.60000000E+01  1.60000000E+01  1.20100000E+01
  1.00800000E+00  1.00800000E+00  1.20100000E+01  1.00800000E+00  1.60000000E+01
  1.20100000E+01  1.00800000E+00  1.40100000E+01  1.20100000E+01  1.00800000E+00
  1.20100000E+01  1.00800000E+00  1.20100000E+01  1.40100000E+01  1.00800000E+00
  1.00800000E+00  1.40100000E+01  1.20100000E+01  1.60000000E+01  1.20010000E+01
  1.00800000E+00  1.20100000E+01  1.00800000E+00  1.00800000E+00  1.60000000E+01
  3.09700000E+01  1.60000000E+01  1.60000000E+01  1.60000000E+01  1.20100000E+01
  1.00800000E+00  1.00800000E+00  1.20100000E+01  1.00800000E+00  1.60000000E+01
  1.20100000E+01  1.00800000E+00  1.40100000E+01  1.20100000E+01  1.00800000E+00
  1.40100000E+01  1.20100000E+01  1.20100000E+01  1.60000000E+01  1.40100000E+01
  1.00800000E+00  1.20100000E+01  1.40100000E+01  1.00800000E+00  1.00800000E+00
  1.40100000E+01  1.20100000E+01  1.20010000E+01  1.00800000E+00  1.20100000E+01
  1.00800000E+00  1.00800000E+00  1.60000000E+01  3.09700000E+01  1.60000000E+01
  1.60000000E+01  1.60000000E+01  1.20100000E+01  1.00800000E+00  1.00800000E+00
  1.20100000E+01  1.00800000E+00  1.60000000E+01  1.20100000E+01  1.00800000E+00
  1.40100000E+01  1.20100000E+01  1.00800000E+00  1.20100000E+01  1.00800000E+00
  1.20100000E+01  1.40100000E+01  1.00800000E+00  1.00800000E+00  1.40100000E+01
  1.20100000E+01  1.60000000E+01  1.20010000E+01  1.00800000E+00  1.20100000E+01
  1.00800000E+00  1.00800000E+00  1.60000000E+01  3.09700000E+01  1.60000000E+01
  1.60000000E+01  1.60000000E+01  1.20100000E+01  1.00800000E+00  1.00800000E+00
  1.20100000E+01  1.00800000E+00  1.60000000E+01  1.20100000E+01  1.00800000E+00
  1.40100000E+01  1.20100000E+01  1.00800000E+00  1.40100000E+01  1.20100000E+01
  1.20100000E+01  1.60000000E+01  1.40100000E+01  1.00800000E+00  1.20100000E+01
  1.40100000E+01  1.00800000E+00  1.00800000E+00  1.40100000E+01  1.20100000E+01
  1.20010000E+01  1.00800000E+00  1.20100000E+01  1.00800000E+00  1.00800000E+00
  1.60000000E+01  3.09700000E+01  1.60000000E+01  1.60000000E+01  1.60000000E+01
  1.20100000E+01  1.00800000E+00  1.00800000E+00  1.20100000E+01  1.00800000E+00
  1.60000000E+01  1.20100000E+01  1.00800000E+00  1.40100000E+01  1.20100000E+01
  1.00800000E+00  1.40100000E+01  1.20100000E+01  1.20100000E+01  1.40100000E+01
  1.00800000E+00  1.00800000E+00  1.40100000E+01  1.20100000E+01  1.00800000E+00
  1.40100000E+01  1.20100000E+01  1.20010000E+01  1.00800000E+00  1.20100000E+01
  1.00800000E+00  1.00800000E+00  1.60000000E+01  3.09700000E+01  1.60000000E+01
  1.60000000E+01  1.60000000E+01  1.20100000E+01  1.00800000E+00  1.00800000E+00
  1.20100000E+01  1.00800000E+00  1.60000000E+01  1.20100000E+01  1.00800000E+00
  1.40100000E+01  1.20100000E+01  1.00800000E+00  1.40100000E+01  1.20100000E+01
  1.20100000E+01  1.40100000E+01  1.00800000E+00  1.00800000E+00  1.40100000E+01
  1.20100000E+01  1.00800000E+00  1.40100000E+01  1.20100000E+01  1.20010000E+01
  1.00800000E+00  1.20100000E+01  1.00800000E+00  1.00800000E+00  1.60000000E+01
  3.09700000E+01  1.60000000E+01  1.60000000E+01  1.60000000E+01  1.20100000E+01
  1.00800000E+00  1.00800000E+00  1.20100000E+01  1.00800000E+00  1.60000000E+01
  1.20100000E+01  1.00800000E+00  1.40100000E+01  1.20100000E+01  1.00800000E+00
  1.20100000E+01  1.20100000E+01  1.00800000E+00  1.00800000E+00  1.00800000E+00
  1.20100000E+01  1.60000000E+01  1.40100000E+01  1.00800000E+00  1.20100000E+01
  1.60000000E+01  1.20010000E+01  1.00800000E+00  1.20100000E+01  1.00800000E+00
  1.00800000E+00  1.60000000E+01  3.09700000E+01  1.60000000E+01  1.60000000E+01
  1.60000000E+01  1.20100000E+01  1.00800000E+00  1.00800000E+00  1.20100000E+01
  1.00800000E+00  1.60000000E+01  1.20100000E+01  1.00800000E+00  1.40100000E+01
  1.20100000E+01  1.00800000E+00  1.20100000E+01  1.20100000E+01  1.00800000E+00
  1.00800000E+00  1.00800000E+00  1.20100000E+01  1.60000000E+01  1.40100000E+01
  1.00800000E+00  1.20100000E+01  1.60000000E+01  1.20010000E+01  1.00800000E+00
  1.20100000E+01  1.00800000E+00  1.00800000E+00  1.60000000E+01  3.09700000E+01
  1.60000000E+01  1.60000000E+01  1.60000000E+01  1.20100000E+01  1.00800000E+00
  1.00800000E+00  1.20100000E+01  1.00800000E+00  1.60000000E+01  1.20100000E+01
  1.00800000E+00  1.40100000E+01  1.20100000E+01  1.00800000E+00  1.20100000E+01
  1.00800000E+00  1.20100000E+01  1.40100000E+01  1.00800000E+00  1.00800000E+00
  1.40100000E+01  1.20100000E+01  1.60000000E+01  1.20010000E+01  1.00800000E+00
  1.20100000E+01  1.00800000E+00  1.00800000E+00  1.60000000E+01  3.09700000E+01
  1.60000000E+01  1.60000000E+01  1.60000000E+01  1.20100000E+01  1.00800000E+00
  1.00800000E+00  1.20100000E+01  1.00800000E+00  1.60000000E+01  1.20100000E+01
  1.00800000E+00  1.40100000E+01  1.20100000E+01  1.00800000E+00  1.40100000E+01
  1.20100000E+01  1.20100000E+01  1.60000000E+01  1.40100000E+01  1.00800000E+00
  1.20100000E+01  1.40100000E+01  1.00800000E+00  1.00800000E+00  1.40100000E+01
  1.20100000E+01  1.20010000E+01  1.00800000E+00  1.20100000E+01  1.00800000E+00
  1.00800000E+00  1.60000000E+01  3.09700000E+01  1.60000000E+01  1.60000000E+01
  1.60000000E+01  1.20100000E+01  1.00800000E+00  1.00800000E+00  1.20100000E+01
  1.00800000E+00  1.60000000E+01  1.20100000E+01  1.00800000E+00  1.40100000E+01
  1.20100000E+01  1.00800000E+00  1.20100000E+01  1.00800000E+00  1.20100000E+01
  1.40100000E+01  1.00800000E+00  1.00800000E+00  1.40100000E+01  1.20100000E+01
  1.60000000E+01  1.20010000E+01  1.00800000E+00  1.20100000E+01  1.00800000E+00
  1.00800000E+00  1.60000000E+01  3.09700000E+01  1.60000000E+01  1.60000000E+01
  1.60000000E+01  1.20100000E+01  1.00800000E+00  1.00800000E+00  1.20100000E+01
  1.00800000E+00  1.60000000E+01  1.20100000E+01  1.00800000E+00  1.40100000E+01
  1.20100000E+01  1.00800000E+00  1.40100000E+01  1.20100000E+01  1.20100000E+01
  1.60000000E+01  1.40100000E+01  1.00800000E+00  1.20100000E+01  1.40100000E+01
  1.00800000E+00  1.00800000E+00  1.40100000E+01  1.20100000E+01  1.20010000E+01
  1.00800000E+00  1.20100000E+01  1.00800000E+00  1.00800000E+00  1.60000000E+01
  3.09700000E+01  1.60000000E+01  1.60000000E+01  1.60000000E+01  1.20100000E+01
  1.00800000E+00  1.00800000E+00  1.20100000E+01  1.00800000E+00  1.60000000E+01
  1.20100000E+01  1.00800000E+00  1.40100000E+01  1.20100000E+01  1.00800000E+00
  1.20100000E+01  1.00800000E+00  1.20100000E+01  1.40100000E+01  1.00800000E+00
  1.00800000E+00  1.40100000E+01  1.20100000E+01  1.60000000E+01  1.20010000E+01
  1.00800000E+00  1.20100000E+01  1.00800000E+00  1.00800000E+00  1.60000000E+01
  3.09700000E+01  1.60000000E+01  1.60000000E+01  1.60000000E+01  1.20100000E+01
  1.00800000E+00  1.00800000E+00  1.20100000E+01  1.00800000E+00  1.60000000E+01
  1.20100000E+01  1.00800000E+00  1.40100000E+01  1.20100000E+01  1.00800000E+00
  1.40100000E+01  1.20100000E+01  1.20100000E+01  1.60000000E+01  1.40100000E+01
  1.00800000E+00  1.20100000E+01  1.40100000E+01  1.00800000E+00  1.00800000E+00
  1.40100000E+01  1.20100000E+01  1.20010000E+01  1.00800000E+00  1.20100000E+01
  1.00800000E+00  1.00800000E+00  1.60000000E+01  3.09700000E+01  1.60000000E+01
  1.60000000E+01  1.60000000E+01  1.20100000E+01  1.00800000E+00  1.00800000E+00
  1.20100000E+01  1.00800000E+00  1.60000000E+01  1.20100000E+01  1.00800000E+00
  1.40100000E+01  1.20100000E+01  1.00800000E+00  1.20100000E+01  1.00800000E+00
  1.20100000E+01  1.40100000E+01  1.00800000E+00  1.00800000E+00  1.40100000E+01
  1.20100000E+01  1.60000000E+01  1.20010000E+01  1.00800000E+00  1.20100000E+01
  1.00800000E+00  1.00800000E+00  1.60000000E+01  3.09700000E+01  1.60000000E+01
  1.60000000E+01  1.60000000E+01  1.20100000E+01  1.00800000E+00  1.00800000E+00
  1.20100000E+01  1.00800000E+00  1.60000000E+01  1.20100000E+01  1.00800000E+00
  1.40100000E+01  1.20100000E+01  1.00800000E+00  1.40100000E+01  1.20100000E+01
  1.20100000E+01  1.60000000E+01  1.40100000E+01  1.00800000E+00  1.20100000E+01
  1.40100000E+01  1.00800000E+00  1.00800000E+00  1.40100000E+01  1.20100000E+01
  1.20010000E+01  1.00800000E+00  1.20100000E+01  1.00800000E+00  1.00800000E+00
  1.60000000E+01  3.09700000E+01  1.60000000E+01  1.60000000E+01  1.60000000E+01
  1.20100000E+01  1.00800000E+00  1.00800000E+00  1.20100000E+01  1.00800000E+00
  1.60000000E+01  1.20100000E+01  1.00800000E+00  1.40100000E+01  1.20100000E+01
  1.00800000E+00  1.40100000E+01  1.20100000E+01  1.20100000E+01  1.40100000E+01
  1.00800000E+00  1.00800000E+00  1.40100000E+01  1.20100000E+01  1.00800000E+00
  1.40100000E+01  1.20100000E+01  1.20010000E+01  1.00800000E+00  1.20100000E+01
  1.00800000E+00  1.00800000E+00  1.60000000E+01  3.09700000E+01  1.60000000E+01
  1.60000000E+01  1.60000000E+01  1.20100000E+01  1.00800000E+00  1.00800000E+00
  1.20100000E+01  1.00800000E+00  1.60000000E+01  1.20100000E+01  1.00800000E+00
  1.40100000E+01  1.20100000E+01  1.00800000E+00  1.40100000E+01  1.20100000E+01
  1.20100000E+01  1.40100000E+01  1.00800000E+00  1.00800000E+00  1.40100000E+01
  1.20100000E+01  1.00800000E+00  1.40100000E+01  1.20100000E+01  1.20010000E+01
  1.00800000E+00  1.20100000E+01  1.00800000E+00  1.00800000E+00  1.60000000E+01
  3.09700000E+01  1.60000000E+01  1.60000000E+01  1.60000000E+01  1.20100000E+01
  1.00800000E+00  1.00800000E+00  1.20100000E+01  1.00800000E+00  1.60000000E+01
  1.20100000E+01  1.00800000E+00  1.40100000E+01  1.20100000E+01  1.00800000E+00
  1.20100000E+01  1.20100000E+01  1.00800000E+00  1.00800000E+00  1.00800000E+00
  1.20100000E+01  1.60000000E+01  1.40100000E+01  1.00800000E+00  1.20100000E+01
  1.60000000E+01  1.20010000E+01  1.00800000E+00  1.20100000E+01  1.00800000E+00
  1.00800000E+00  1.60000000E+01  3.09700000E+01  1.60000000E+01  1.60000000E+01
  1.60000000E+01  1.20100000E+01  1.00800000E+00  1.00800000E+00  1.20100000E+01
  1.00800000E+00  1.60000000E+01  1.20100000E+01  1.00800000E+00  1.40100000E+01
  1.20100000E+01  1.00800000E+00  1.20100000E+01  1.20100000E+01  1.00800000E+00
  1.00800000E+00  1.00800000E+00  1.20100000E+01  1.60000000E+01  1.40100000E+01
  1.00800000E+00  1.20100000E+01  1.60000000E+01  1.20010000E+01  1.00800000E+00
  1.20100000E+01  1.00800000E+00  1.00800000E+00  1.60000000E+01  3.09700000E+01
  1.60000000E+01  1.60000000E+01  1.60000000E+01  1.20100000E+01  1.00800000E+00
  1.00800000E+00  1.20100000E+01  1.00800000E+00  1.60000000E+01  1.20100000E+01
  1.00800000E+00  1.40100000E+01  1.20100000E+01  1.00800000E+00  1.20100000E+01
  1.00800000E+00  1.20100000E+01  1.40100000E+01  1.00800000E+00  1.00800000E+00
  1.40100000E+01  1.20100000E+01  1.60000000E+01  1.20010000E+01  1.00800000E+00
  1.20100000E+01  1.00800000E+00  1.00800000E+00  1.60000000E+01  3.09700000E+01
  1.60000000E+01  1.60000000E+01  1.60000000E+01  1.20100000E+01  1.00800000E+00
  1.00800000E+00  1.20100000E+01  1.00800000E+00  1.60000000E+01  1.20100000E+01
  1.00800000E+00  1.40100000E+01  1.20100000E+01  1.00800000E+00  1.40100000E+01
  1.20100000E+01  1.20100000E+01  1.60000000E+01  1.40100000E+01  1.00800000E+00
  1.20100000E+01  1.40100000E+01  1.00800000E+00  1.00800000E+00  1.40100000E+01
  1.20100000E+01  1.20010000E+01  1.00800000E+00  1.20100000E+01  1.00800000E+00
  1.00800000E+00  1.60000000E+01  3.09700000E+01  1.60000000E+01  1.60000000E+01
  1.60000000E+01  1.20100000E+01  1.00800000E+00  1.00800000E+00  1.20100000E+01
  1.00800000E+00  1.60000000E+01  1.20100000E+01  1.00800000E+00  1.40100000E+01
  1.20100000E+01  1.00800000E+00  1.20100000E+01  1.00800000E+00  1.20100000E+01
  1.40100000E+01  1.00800000E+00  1.00800000E+00  1.40100000E+01  1.20100000E+01
  1.60000000E+01  1.20010000E+01  1.00800000E+00  1.20100000E+01  1.00800000E+00
  1.00800000E+00  1.60000000E+01  3.09700000E+01  1.60000000E+01  1.60000000E+01
  1.60000000E+01  1.20100000E+01  1.00800000E+00  1.00800000E+00  1.20100000E+01
  1.00800000E+00  1.60000000E+01  1.20100000E+01  1.00800000E+00  1.40100000E+01
  1.20100000E+01  1.00800000E+00  1.40100000E+01  1.20100000E+01  1.20100000E+01
  1.60000000E+01  1.40100000E+01  1.00800000E+00  1.20100000E+01  1.40100000E+01
  1.00800000E+00  1.00800000E+00  1.40100000E+01  1.20100000E+01  1.20010000E+01
  1.00800000E+00  1.20100000E+01  1.00800000E+00  1.00800000E+00  1.60000000E+01
%FLAG ATOM_TYPE_INDEX                                                           
%FORMAT(10I8)                                                                   
       1       2       2       3       4       5       5       4       5       3
       4       6       7       8       9       8      10       8       7      11
      11       7       8       2       4       5       4      12      12       3
       1       2       2       3       4       5       5       4       5       3
       4       6       7       8      13       7       8       8       2       7
      11       8       7      11      11       7       8       4       5       4
      12      12       3       1       2       2       3       4       5       5
       4       5       3       4       6       7       8       9       8      10
       8       7      11      11       7       8       2       4       5       4
      12      12       3       1       2       2       3       4       5       5
       4       5       3       4       6       7       8      13       7       8
       8       2       7      11       8       7      11      11       7       8
       4       5       4      12      12       3       1       2       2       3
       4       5       5       4       5       3       4       6       7       8
      13       7       8       8       7      11      11       7       8      13
       7       8       4       5       4      12      12       3       1       2
       2       3       4       5       5       4       5       3       4       6
       7       8      13       7       8       8       7      11      11       7
       8      13       7       8       4       5       4      12      12       3
       1       2       2       3       4       5       5       4       5       3
       4       6       7       8       9       8       4      12      12      12
       8       2       7      11       8       2       4       5       4      12
      12       3       1       2       2       3       4       5       5       4
       5       3       4       6       7       8       9       8       4      12
      12      12       8       2       7      11       8       2       4       5
       4      12      12       3       1       2       2       3       4       5
       5       4       5       3       4       6       7       8       9       8
      10       8       7      11      11       7       8       2       4       5
       4      12      12       3       1       2       2       3       4       5
       5       4       5       3       4       6       7       8      13       7
       8       8       2       7      11       8       7      11      11       7
       8       4       5       4      12      12       3       1       2       2
       3       4       5       5       4       5       3       4       6       7
       8       9       8      10       8       7      11      11       7       8
       2       4       5       4      12      12       3       1       2       2
       3       4       5       5       4       5       3       4       6       7
       8      13       7       8       8       2       7      11       8       7
      11      11       7       8       4       5       4      12      12       3
       1       2       2       3       4       5       5       4       5       3
       4       6       7       8       9       8      10       8       7      11
      11       7       8       2       4       5       4      12      12       3
       1       2       2       3       4       5       5       4       5       3
       4       6       7       8      13       7       8       8       2       7
      11       8       7      11      11       7       8       4       5       4
      12      12       3       1       2       2       3       4       5       5
       4       5       3       4       6       7       8       9       8      10
       8       7      11      11       7       8       2       4       5       4
      12      12       3       1       2       2       3       4       5       5
       4       5       3       4       6       7       8      13       7       8
       8       2       7      11       8       7      11      11       7       8
       4       5       4      12      12       3       1       2       2       3
       4       5       5       4       5       3       4       6       7       8
      13       7       8       8       7      11      11       7       8      13
       7       8       4       5       4      12      12       3       1       2
       2       3       4       5       5       4       5       3       4       6
       7       8      13       7       8       8       7      11      11       7
       8      13       7       8       4       5       4      12      12       3
       1       2       2       3       4       5       5       4       5       3
       4       6       7       8       9       8       4      12      12      12
       8       2       7      11       8       2       4       5       4      12
      12       3       1       2       2       3       4       5       5       4
       5       3       4       6       7       8       9       8       4      12
      12      12       8       2       7      11       8       2       4       5
       4      12      12       3       1       2       2       3       4       5
       5       4       5       3       4       6       7       8       9       8
      10       8       7      11      11       7       8       2       4       5
       4      12      12       3       1       2       2       3       4       5
       5       4       5       3       4       6       7       8      13       7
       8       8       2       7      11       8       7      11      11       7
       8       4       5       4      12      12       3       1       2       2
       3       4       5       5       4       5       3       4       6       7
       8       9       8      10       8       7      11      11       7       8
       2       4       5       4      12      12       3       1       2       2
       3       4       5       5       4       5       3       4       6       7
       8      13       7       8       8       2       7      11       8       7
      11      11       7       8       4       5       4      12      12       3
%FLAG NUMBER_EXCLUDED_ATOMS                                                     
%FORMAT(10I8)                                                                   
       7       3       2       7      10       5       4      12       6      11
      14       7      12       9       4       7       3       6       4       2
       1       2       2       1       9       5       4       2       1       5
       7       3       2       7      10       5       4      12       6      11
      14       7      12       7       3       6       7       7       4       7
       3       5       4       2       1       1       1       9       5       4
       2       1       5       7       3       2       7      10       5       4
      12       6      11      14       7      12       9       4       7       3
       6       4       2       1       2       2       1       9       5       4
       2       1       5       7       3       2       7      10       5       4
      12       6      11      14       7      12       7       3       6       7
       7       4       7       3       5       4       2       1       1       1
       9       5       4       2       1       5       7       3       2       7
      10       5       4      12       6      11      14       7      12       7
       3       6       8       8       5       2       1       4       3       2
       1       1       9       5       4       2       1       5       7       3
       2       7      10       5       4      12       6      11      14       7
      12       7       3       6       8       8       5       2       1       4
       3       2       1       1       9       5       4       2       1       5
       7       3       2       7      10       5       4      12       6      11
      14       7      13      12       4       9       6       3       2       1
       5       3       3       2       2       1       9       5       4       2
       1       5       7       3       2       7      10       5       4      12
       6      11      14       7      13      12       4       9       6       3
       2       1       5       3       3       2       2       1       9       5
       4       2       1       5       7       3       2       7      10       5
       4      12       6      11      14       7      12       9       4       7
       3       6       4       2       1       2       2       1       9       5
       4       2       1       5       7       3       2       7      10       5
       4      12       6      11      14       7      12       7       3       6
       7       7       4       7       3       5       4       2       1       1
       1       9       5       4       2       1       5       7       3       2
       7      10       5       4      12       6      11      14       7      12
       9       4       7       3       6       4       2       1       2       2
       1       9       5       4       2       1       5       7       3       2
       7      10       5       4      11       6      11      14       7      12
       7       3       6       7       7       4       7       3       5       4
       2       1       1       1       5       4       3       2       1       1
       7       3       2       7      10       5       4      12       6      11
      14       7      12       9       4       7       3       6       4       2
       1       2       2       1       9       5       4       2       1       5
       7       3       2       7      10       5       4      12       6      11
      14       7      12       7       3       6       7       7       4       7
       3       5       4       2       1       1       1       9       5       4
       2       1       5       7       3       2       7      10       5       4
      12       6      11      14       7      12       9       4       7       3
       6       4       2       1       2       2       1       9       5       4
       2       1       5       7       3       2       7      10       5       4
      12       6      11      14       7      12       7       3       6       7
       7       4       7       3       5       4       2       1       1       1
       9       5       4       2       1       5       7       3       2       7
      10       5       4      12       6      11      14       7      12       7
       3       6       8       8       5       2       1       4       3       2
       1       1       9       5       4       2       1       5       7       3
       2       7      10       5       4      12       6      11      14       7
      12       7       3       6       8       8       5       2       1       4
       3       2       1       1       9       5       4       2       1       5
       7       3       2       7      10       5       4      12       6      11
      14       7      13      12       4       9       6       3       2       1
       5       3       3       2       2       1       9       5       4       2
       1       5       7       3       2       7      10       5       4      12
       6      11      14       7      13      12       4       9       6       3
       2       1       5       3       3       2       2       1       9       5
       4       2       1       5       7       3       2       7      10       5
       4      12       6      11      14       7      12       9       4       7
       3       6       4       2       1       2       2       1       9       5
       4       2       1       5       7       3       2       7      10       5
       4      12       6      11      14       7      12       7       3       6
       7       7       4       7       3       5       4       2       1       1
       1       9       5       4       2       1       5       7       3       2
       7      10       5       4      12       6      11      14       7      12
       9       4       7       3       6       4       2       1       2       2
       1       9       5       4       2       1       5       7       3       2
       7      10       5       4      11       6      11      14       7      12
       7       3       6       7       7       4       7       3       5       4
       2       1       1       1       5       4       3       2       1       1
%FLAG NONBONDED_PARM_INDEX                                                      
%FORMAT(10I8)                                                                   
       1       2       4       7      11      16      22      29      37      46
      56      67      79       2       3       5       8      12      17      23
      30      38      47      57      68      80       4       5       6       9
      13      18      24      31      39      48      58      69      81       7
       8       9      10      14      19      25      32      40      49      59
      70      82      11      12      13      14      15      20      26      33
      41      50      60      71      83      16      17      18      19      20
      21      27      34      42      51      61      72      84      22      23
      24      25      26      27      28      35      43      52      62      73
      85      29      30      31      32      33      34      35      36      44
      53      63      74      86      37      38      39      40      41      42
      43      44      45      54      64      75      87      46      47      48
      49      50      51      52      53      54      55      65      76      88
      56      57      58      59      60      61      62      63      64      65
      66      77      89      67      68      69      70      71      72      73
      74      75      76      77      78      90      79      80      81      82
      83      84      85      86      87      88      89      90      91
%FLAG RESIDUE_LABEL                                                             
%FORMAT(20a4)                                                                   
DC  DG  DC  DG  DA  DA  DT  DT  DC  DG  DC  DG  DC  DG  DC  DG  DA  DA  DT  DT  
DC  DG  DC  DG  
%FLAG RESIDUE_POINTER                                                           
%FORMAT(10I8)                                                                   
       1      31      64      94     127     159     191     223     255     285
     318     348     381     411     444     474     507     539     571     603
     635     665     698     728
%FLAG BOND_FORCE_CONSTANT                                                       
%FORMAT(5E16.8)                                                                 
  2.30000000E+02  3.40000000E+02  3.40000000E+02  3.10000000E+02  3.20000000E+02
  5.70000000E+02  4.57000000E+02  4.34000000E+02  4.81000000E+02  4.83000000E+02
  3.67000000E+02  4.27000000E+02  3.67000000E+02  5.49000000E+02  4.48000000E+02
  4.24000000E+02  3.40000000E+02  3.37000000E+02  3.10000000E+02  3.20000000E+02
  3.40000000E+02  3.40000000E+02  3.10000000E+02  3.20000000E+02  5.25000000E+02
  4.61000000E+02  4.34000000E+02  4.27000000E+02  4.18000000E+02  4.47000000E+02
  5.20000000E+02  4.14000000E+02  3.67000000E+02  5.29000000E+02  4.40000000E+02
  4.36000000E+02  3.67000000E+02  5.02000000E+02  4.69000000E+02  3.67000000E+02
  5.29000000E+02  4.40000000E+02  3.17000000E+02  4.10000000E+02  3.67000000E+02
  5.49000000E+02  4.48000000E+02
%FLAG BOND_EQUIL_VALUE                                                          
%FORMAT(5E16.8)                                                                 
  1.61000000E+00  1.09000000E+00  1.09000000E+00  1.52600000E+00  1.41000000E+00
  1.22900000E+00  1.35800000E+00  1.01000000E+00  1.34000000E+00  1.33900000E+00
  1.08000000E+00  1.43300000E+00  1.08000000E+00  1.35000000E+00  1.36500000E+00
  1.38300000E+00  1.09000000E+00  1.47500000E+00  1.52600000E+00  1.41000000E+00
  1.09000000E+00  1.09000000E+00  1.52600000E+00  1.41000000E+00  1.48000000E+00
  1.35400000E+00  1.01000000E+00  1.38100000E+00  1.38800000E+00  1.41900000E+00
  1.37000000E+00  1.39100000E+00  1.08000000E+00  1.30400000E+00  1.37100000E+00
  1.37400000E+00  1.08000000E+00  1.32400000E+00  1.40400000E+00  1.08000000E+00
  1.30400000E+00  1.37100000E+00  1.51000000E+00  1.44400000E+00  1.08000000E+00
  1.35000000E+00  1.36500000E+00
%FLAG ANGLE_FORCE_CONSTANT                                                      
%FORMAT(5E16.8)                                                                 
  1.00000000E+02  4.50000000E+01  3.50000000E+01  5.00000000E+01  5.00000000E+01
  5.00000000E+01  5.00000000E+01  1.00000000E+02  8.00000000E+01  3.50000000E+01
  7.00000000E+01  5.00000000E+01  7.00000000E+01  5.00000000E+01  7.00000000E+01
  7.00000000E+01  5.00000000E+01  7.00000000E+01  5.00000000E+01  6.30000000E+01
  5.00000000E+01  5.00000000E+01  7.00000000E+01  7.00000000E+01  8.00000000E+01
  5.00000000E+01  5.00000000E+01  7.00000000E+01  7.00000000E+01  4.00000000E+01
  5.00000000E+01  5.00000000E+01  5.00000000E+01  5.00000000E+01  5.00000000E+01
  5.00000000E+01  5.00000000E+01  6.00000000E+01  4.00000000E+01  5.00000000E+01
  3.50000000E+01  5.00000000E+01  5.00000000E+01  4.00000000E+01  5.00000000E+01
  5.00000000E+01  1.40000000E+02  1.00000000E+02  7.00000000E+01  5.00000000E+01
  7.00000000E+01  7.00000000E+01  8.00000000E+01  6.30000000E+01  5.00000000E+01
  7.00000000E+01  8.00000000E+01  7.00000000E+01  7.00000000E+01  7.00000000E+01
  7.00000000E+01  5.00000000E+01  7.00000000E+01  7.00000000E+01  5.00000000E+01
  7.00000000E+01  7.00000000E+01  7.00000000E+01  7.00000000E+01  7.00000000E+01
  5.00000000E+01  7.00000000E+01  7.00000000E+01  6.30000000E+01  7.00000000E+01
  7.00000000E+01  7.00000000E+01  7.00000000E+01  5.00000000E+01  7.00000000E+01
  7.00000000E+01  5.00000000E+01  7.00000000E+01  7.00000000E+01  7.00000000E+01
  7.00000000E+01  5.00000000E+01  8.00000000E+01  7.00000000E+01  5.00000000E+01
  7.00000000E+01  7.00000000E+01  6.30000000E+01  5.00000000E+01  7.00000000E+01
  7.00000000E+01  7.00000000E+01
%FLAG ANGLE_EQUIL_VALUE                                                         
%FORMAT(5E16.8)                                                                 
  1.88897066E+00  1.79070858E+00  1.91113635E+00  1.91113635E+00  1.91113635E+00
  1.91113635E+00  1.91113635E+00  2.10312265E+00  2.13802925E+00  2.09439600E+00
  2.08217869E+00  2.09439600E+00  2.10312265E+00  2.15199189E+00  2.09614133E+00
  2.12057595E+00  2.08916001E+00  2.12232128E+00  2.08916001E+00  2.04203610E+00
  1.91113635E+00  2.07868803E+00  2.11533996E+00  2.06996138E+00  2.11010397E+00
  1.91113635E+00  1.91113635E+00  2.11533996E+00  2.05250808E+00  1.91113635E+00
  1.91113635E+00  1.91113635E+00  1.91113635E+00  1.91113635E+00  1.91113635E+00
  1.91113635E+00  1.91113635E+00  1.91113635E+00  1.91113635E+00  1.91113635E+00
  1.91113635E+00  1.91113635E+00  1.91113635E+00  1.91113635E+00  1.91113635E+00
  1.91113635E+00  2.09265067E+00  2.10312265E+00  1.95826026E+00  2.05948940E+00
  2.02458280E+00  2.15199189E+00  2.10486798E+00  2.08043336E+00  2.03854544E+00
  2.18515316E+00  2.24798504E+00  1.94255229E+00  2.22878641E+00  2.26892900E+00
  1.92684432E+00  2.14762857E+00  1.83957782E+00  1.81165254E+00  2.14762857E+00
  1.98793087E+00  1.85354046E+00  2.20260646E+00  2.24798504E+00  2.19562514E+00
  2.01498349E+00  1.93731630E+00  2.25322103E+00  2.04727209E+00  2.06996138E+00
  2.15548255E+00  2.04727209E+00  2.31081692E+00  2.14762857E+00  1.83957782E+00
  1.81165254E+00  2.14762857E+00  1.98793087E+00  2.24798504E+00  2.20609712E+00
  2.08916001E+00  1.91113635E+00  2.18689849E+00  1.99142153E+00  2.08916001E+00
  2.12232128E+00  2.08916001E+00  2.10661331E+00  2.07868803E+00  2.11533996E+00
  2.01411082E+00  2.11533996E+00
%FLAG DIHEDRAL_FORCE_CONSTANT                                                   
%FORMAT(5E16.8)                                                                 
  1.85181000E-01  1.25653100E+00  3.54858000E-01  1.55555556E-01  1.07993300E+00
  3.19017000E-01  5.48360000E-02  3.83333333E-01  2.50000000E-01  3.21859000E-01
  5.44600000E-01  7.97144000E-01  0.00000000E+00  2.40000000E+00  4.80000000E+00
  4.00000000E+00  2.55000000E+00  1.85000000E+00  6.65000000E+00  1.45000000E+00
  1.00000000E-01  3.83300000E-01  1.20000000E+00  1.17500000E+00  1.44000000E-01
  1.03000000E+00  1.52000000E+00  2.60000000E-01  2.50000000E-01  0.00000000E+00
  6.50000000E-01  3.83000000E-01  1.20000000E+00  9.00000000E-01  1.60000000E-01
  1.17804000E+00  9.21020000E-02  9.62830000E-01  1.50000000E+00  3.00000000E+00
  1.35000000E+00  5.45000000E+00  4.15000000E+00  1.70000000E+00  1.00000000E+01
  1.65000000E+00  8.10000000E-01  1.73000000E+00  4.40000000E-01  6.80000000E+00
  3.50000000E+00  9.10000000E-01  1.91000000E+00  4.10000000E-01  2.17500000E+00
  1.15000000E+00  3.80000000E-01  3.00000000E-01  9.90000000E-01  1.67000000E+00
  1.70000000E-01  1.05000000E+01  1.00000000E+00  1.10000000E+00
%FLAG DIHEDRAL_PERIODICITY                                                      
%FORMAT(5E16.8)                                                                 
  1.00000000E+00  2.00000000E+00  3.00000000E+00  3.00000000E+00  1.00000000E+00
  2.00000000E+00  3.00000000E+00  3.00000000E+00  3.00000000E+00  1.00000000E+00
  2.00000000E+00  3.00000000E+00  2.00000000E+00  2.00000000E+00  2.00000000E+00
  2.00000000E+00  2.00000000E+00  2.00000000E+00  2.00000000E+00  2.00000000E+00
  2.00000000E+00  3.00000000E+00  1.00000000E+00  2.00000000E+00  3.00000000E+00
  1.00000000E+00  2.00000000E+00  3.00000000E+00  1.00000000E+00  3.00000000E+00
  2.00000000E+00  3.00000000E+00  1.00000000E+00  3.00000000E+00  3.00000000E+00
  1.00000000E+00  2.00000000E+00  3.00000000E+00  2.00000000E+00  2.00000000E+00
  2.00000000E+00  2.00000000E+00  2.00000000E+00  2.00000000E+00  2.00000000E+00
  2.00000000E+00  1.00000000E+00  2.00000000E+00  3.00000000E+00  2.00000000E+00
  2.00000000E+00  1.00000000E+00  2.00000000E+00  3.00000000E+00  2.00000000E+00
  1.00000000E+00  3.00000000E+00  3.00000000E+00  1.00000000E+00  2.00000000E+00
  3.00000000E+00  2.00000000E+00  2.00000000E+00  2.00000000E+00
%FLAG DIHEDRAL_PHASE                                                            
%FORMAT(5E16.8)                                                                 
  5.54929070E-01  6.14285649E+00  6.23514744E+00  0.00000000E+00  5.19698240E+00
  3.50131437E+00  2.64638419E+00  0.00000000E+00  0.00000000E+00  1.15045137E+00
  9.53800156E-02  5.15662653E+00  0.00000000E+00  3.14159400E+00  3.14159400E+00
  3.14159400E+00  3.14159400E+00  3.14159400E+00  3.14159400E+00  3.14159400E+00
  3.14159400E+00  0.00000000E+00  5.62711845E+00  0.00000000E+00  0.00000000E+00
  3.22536984E+00  1.36135740E-01  3.65821168E+00  0.00000000E+00  0.00000000E+00
  0.00000000E+00  0.00000000E+00  6.71079385E-01 -3.89208590E-02  0.00000000E+00
  3.33317067E+00  5.15976777E+00  6.07541257E+00  3.14159400E+00  3.14159400E+00
  3.14159400E+00  3.14159400E+00  3.14159400E+00  3.14159400E+00  3.14159400E+00
  3.14159400E+00  1.52716375E+00  6.98132000E-02  3.83623534E+00  3.14159400E+00
  3.14159400E+00  2.09614133E+00  1.22173100E-02  3.93397382E+00  3.14159400E+00
  0.00000000E+00  3.14159400E+00  0.00000000E+00  3.28122040E+00  8.20305100E-02
  3.68090097E+00  3.14159400E+00  3.14159400E+00  3.14159400E+00
%FLAG SCEE_SCALE_FACTOR                                                         
%FORMAT(5E16.8)                                                                 
  1.20000000E+00  1.20000000E+00  1.20000000E+00  1.20000000E+00  1.20000000E+00
  1.20000000E+00  1.20000000E+00  1.20000000E+00  1.20000000E+00  1.20000000E+00
  1.20000000E+00  1.20000000E+00  1.20000000E+00  1.20000000E+00  1.20000000E+00
  1.20000000E+00  1.20000000E+00  1.20000000E+00  1.20000000E+00  1.20000000E+00
  1.20000000E+00  1.20000000E+00  1.20000000E+00  1.20000000E+00  1.20000000E+00
  1.20000000E+00  1.20000000E+00  1.20000000E+00  1.20000000E+00  1.20000000E+00
  1.20000000E+00  1.20000000E+00  1.20000000E+00  1.20000000E+00  1.20000000E+00
  1.20000000E+00  1.20000000E+00  1.20000000E+00  1.20000000E+00  1.20000000E+00
  1.20000000E+00  1.20000000E+00  1.20000000E+00  1.20000000E+00  1.20000000E+00
  1.20000000E+00  1.20000000E+00  1.20000000E+00  1.20000000E+00  1.20000000E+00
  1.20000000E+00  1.20000000E+00  1.20000000E+00  1.20000000E+00  1.20000000E+00
  1.20000000E+00  1.20000000E+00  1.20000000E+00  1.20000000E+00  1.20000000E+00
  1.20000000E+00  0.00000000E+00  0.00000000E+00  0.00000000E+00
%FLAG SCNB_SCALE_FACTOR                                                         
%FORMAT(5E16.8)                                                                 
  2.00000000E+00  2.00000000E+00  2.00000000E+00  2.00000000E+00  2.00000000E+00
  2.00000000E+00  2.00000000E+00  2.00000000E+00  2.00000000E+00  2.00000000E+00
  2.00000000E+00  2.00000000E+00  2.00000000E+00  2.00000000E+00  2.00000000E+00
  2.00000000E+00  2.00000000E+00  2.00000000E+00  2.00000000E+00  2.00000000E+00
  2.00000000E+00  2.00000000E+00  2.00000000E+00  2.00000000E+00  2.00000000E+00
  2.00000000E+00  2.00000000E+00  2.00000000E+00  2.00000000E+00  2.00000000E+00
  2.00000000E+00  2.00000000E+00  2.00000000E+00  2.00000000E+00  2.00000000E+00
  2.00000000E+00  2.00000000E+00  2.00000000E+00  2.00000000E+00  2.00000000E+00
  2.00000000E+00  2.00000000E+00  2.00000000E+00  2.00000000E+00  2.00000000E+00
  2.00000000E+00  2.00000000E+00  2.00000000E+00  2.00000000E+00  2.00000000E+00
  2.00000000E+00  2.00000000E+00  2.00000000E+00  2.00000000E+00  2.00000000E+00
  2.00000000E+00  2.00000000E+00  2.00000000E+00  2.00000000E+00  2.00000000E+00
  2.00000000E+00  0.00000000E+00  0.00000000E+00  0.00000000E+00
%FLAG SOLTY                                                                     
%FORMAT(5E16.8)                                                                 
  0.00000000E+00  0.00000000E+00  0.00000000E+00  0.00000000E+00  0.00000000E+00
  0.00000000E+00  0.00000000E+00  0.00000000E+00  0.00000000E+00  0.00000000E+00
  0.00000000E+00  0.00000000E+00  0.00000000E+00  0.00000000E+00  0.00000000E+00
  0.00000000E+00  0.00000000E+00  0.00000000E+00  0.00000000E+00  0.00000000E+00
  0.00000000E+00  0.00000000E+00  0.00000000E+00  0.00000000E+00  0.00000000E+00
  0.00000000E+00  0.00000000E+00
%FLAG LENNARD_JONES_ACOEF                                                       
%FORMAT(5E16.8)                                                                 
  6.02589390E+06  1.64263766E+06  3.79876399E+05  1.58759528E+06  3.70622491E+05
  3.61397723E+05  2.54188684E+06  6.47841731E+05  6.28541240E+05  1.04308023E+06
  1.81087383E+05  3.69471530E+04  3.63097246E+04  6.78771368E+04  3.25969625E+03
  1.27716552E+05  2.47595516E+04  2.44050579E+04  4.68930885E+04  2.09814978E+03
  1.32801250E+03  2.45746558E+06  6.06829342E+05  5.89818288E+05  9.95480466E+05
  6.20665997E+04  4.24594555E+04  9.44293233E+05  2.25370349E+06  5.74393458E+05
  5.57281136E+05  9.24822270E+05  6.01816484E+04  4.15766412E+04  8.82619071E+05
  8.19971662E+05  1.90880272E+05  3.93690817E+04  3.86654993E+04  7.18621074E+04
  3.50301067E+03  2.26273716E+03  6.58473870E+04  6.37148278E+04  3.76169105E+03
  2.26202022E+05  4.77908183E+04  4.68711055E+04  8.59947003E+04  4.33325458E+03
  2.82099197E+03  7.91627154E+04  7.62451550E+04  4.64559155E+03  5.71629601E+03
  8.41065839E+03  1.02595236E+03  1.03954408E+03  2.56678134E+03  5.94667300E+01
  3.20009193E+01  2.12601181E+03  2.27577561E+03  6.63368273E+01  8.90987508E+01
  1.39982777E-01  2.54238516E+05  5.44261042E+04  5.33379252E+04  9.71708117E+04
  4.98586848E+03  3.25969625E+03  8.96776989E+04  8.61541883E+04  5.34045360E+03
  6.55825601E+03  1.07193646E+02  7.51607703E+03  1.60682053E+05  3.23283631E+04
  3.17965283E+04  5.98885646E+04  2.82099197E+03  1.80748014E+03  5.46147253E+04
  5.30987710E+04  3.03448006E+03  3.76169105E+03  4.90239937E+01  4.33325458E+03
  2.43828624E+03
%FLAG LENNARD_JONES_BCOEF                                                       
%FORMAT(5E16.8)                                                                 
  2.19561270E+03  1.16041466E+03  5.64885984E+02  1.08210555E+03  5.29252520E+02
  4.95732238E+02  1.22636552E+03  6.26720080E+02  5.85549272E+02  6.75612247E+02
  2.01468199E+02  9.21192136E+01  8.66220817E+01  1.06076943E+02  1.43076527E+01
  1.69194406E+02  7.54103785E+01  7.10161395E+01  8.81685417E+01  1.14788417E+01
  9.13231543E+00  1.34630496E+03  6.77220874E+02  6.33305958E+02  7.36907417E+02
  1.13252061E+02  9.36708259E+01  8.01323529E+02  1.08732781E+03  5.55666448E+02
  5.19163331E+02  5.99015525E+02  9.40505980E+01  7.81725398E+01  6.53361429E+02
  5.31102864E+02  2.04498832E+02  9.40124296E+01  8.83744760E+01  1.07908863E+02
  1.46638650E+01  1.17854122E+01  1.15327881E+02  9.56748258E+01  1.50233639E+01
  2.22617115E+02  1.03580945E+02  9.73010751E+01  1.18043746E+02  1.63092814E+01
  1.31591746E+01  1.26451907E+02  1.04660679E+02  1.66953734E+01  1.85196588E+01
  4.34187588E+01  1.53505284E+01  1.46567808E+01  2.06278363E+01  1.93248820E+00
  1.41762397E+00  2.09604198E+01  1.82891803E+01  2.01792524E+00  2.33864085E+00
  9.37598976E-02  2.38716853E+02  1.11805549E+02  1.04986921E+02  1.26919150E+02
  1.76949863E+01  1.43076527E+01  1.36131731E+02  1.12529845E+02  1.81057616E+01
  2.00642027E+01  2.59456373E+00  2.17257828E+01  1.87626421E+02  8.51921330E+01
  8.01410250E+01  9.85097219E+01  1.31591746E+01  1.05333009E+01  1.05031585E+02
  8.73413012E+01  1.34932874E+01  1.50233639E+01  1.73473071E+00  1.63092814E+01
  1.20953369E+01
%FLAG BONDS_INC_HYDROGEN                                                        
%FORMAT(10I8)                                                                   
      78      81       2      78      84       2      72      75       3      54
      57       8      54      60       8      45      48      11      39      42
      13      30      33      17      21      24      21      12      15      22
      12      18      22     177     180       2     177     183       2     171
     174       3     156     159       8     156     162       8     147     150
      27     129     132      33     120     123      17     111     114      21
     102     105      22     102     108      22     267     270       2     267
     273       2     261     264       3     243     246       8     243     249
       8     234     237      11     228     231      13     219     222      17
     210     213      21     201     204      22     201     207      22     366
     369       2     366     372       2     360     363       3     345     348
       8     345     351       8     336     339      27     318     321      33
     309     312      17     300     303      21     291     294      22     291
     297      22     462     465       2     462     468       2     456     459
       3     444     447      37     432     435       8     432     438       8
     417     420      40     408     411      17     399     402      21     390
     393      22     390     396      22     558     561       2     558     564
       2     552     555       3     540     543      37     528     531       8
     528     534       8     513     516      40     504     507      17     495
     498      21     486     489      22     486     492      22     654     657
       2     654     660       2     648     651       3     636     639      27
     618     621       2     618     624       2     618     627       2     609
     612      45     600     603      17     591     594      21     582     585
      22     582     588      22     750     753       2     750     756       2
     744     747       3     732     735      27     714     717       2     714
     720       2     714     723       2     705     708      45     696     699
      17     687     690      21     678     681      22     678     684      22
     840     843       2     840     846       2     834     837       3     816
     819       8     816     822       8     807     810      11     801     804
      13     792     795      17     783     786      21     774     777      22
     774     780      22     939     942       2     939     945       2     933
     936       3     918     921       8     918     924       8     909     912
      27     891     894      33     882     885      17     873     876      21
     864     867      22     864     870      22    1029    1032       2    1029
    1035       2    1023    1026       3    1005    1008       8    1005    1011
       8     996     999      11     990     993      13     981     984      17
     972     975      21     963     966      22     963     969      22    1128
    1131       2    1128    1134       2    1122    1125       3    1107    1110
       8    1107    1113       8    1098    1101      27    1080    1083      33
    1071    1074      17    1062    1065      21    1053    1056      22    1053
    1059      22    1218    1221       2    1218    1224       2    1212    1215
       3    1194    1197       8    1194    1200       8    1185    1188      11
    1179    1182      13    1170    1173      17    1161    1164      21    1152
    1155      22    1152    1158      22    1317    1320       2    1317    1323
       2    1311    1314       3    1296    1299       8    1296    1302       8
    1287    1290      27    1269    1272      33    1260    1263      17    1251
    1254      21    1242    1245      22    1242    1248      22    1407    1410
       2    1407    1413       2    1401    1404       3    1383    1386       8
    1383    1389       8    1374    1377      11    1368    1371      13    1359
    1362      17    1350    1353      21    1341    1344      22    1341    1347
      22    1506    1509       2    1506    1512       2    1500    1503       3
    1485    1488       8    1485    1491       8    1476    1479      27    1458
    1461      33    1449    1452      17    1440    1443      21    1431    1434
      22    1431    1437      22    1602    1605       2    1602    1608       2
    1596    1599       3    1584    1587      37    1572    1575       8    1572
    1578       8    1557    1560      40    1548    1551      17    1539    1542
      21    1530    1533      22    1530    1536      22    1698    1701       2
    1698    1704       2    1692    1695       3    1680    1683      37    1668
    1671       8    1668    1674       8    1653    1656      40    1644    1647
      17    1635    1638      21    1626    1629      22    1626    1632      22
    1794    1797       2    1794    1800       2    1788    1791       3    1776
    1779      27    1758    1761       2    1758    1764       2    1758    1767
       2    1749    1752      45    1740    1743      17    1731    1734      21
    1722    1725      22    1722    1728      22    1890    1893       2    1890
    1896       2    1884    1887       3    1872    1875      27    1854    1857
       2    1854    1860       2    1854    1863       2    1845    1848      45
    1836    1839      17    1827    1830      21    1818    1821      22    1818
    1824      22    1980    1983       2    1980    1986       2    1974    1977
       3    1956    1959       8    1956    1962       8    1947    1950      11
    1941    1944      13    1932    1935      17    1923    1926      21    1914
    1917      22    1914    1920      22    2079    2082       2    2079    2085
       2    2073    2076       3    2058    2061       8    2058    2064       8
    2049    2052      27    2031    2034      33    2022    2025      17    2013
    2016      21    2004    2007      22    2004    2010      22    2169    2172
       2    2169    2175       2    2163    2166       3    2145    2148       8
    2145    2151       8    2136    2139      11    2130    2133      13    2121
    2124      17    2112    2115      21    2103    2106      22    2103    2109
      22    2268    2271       2    2268    2274       2    2262    2265       3
    2247    2250       8    2247    2253       8    2238    2241      27    2220
    2223      33    2211    2214      17    2202    2205      21    2193    2196
      22    2193    2199      22
%FLAG BONDS_WITHOUT_HYDROGEN                                                    
%FORMAT(10I8)                                                                   
      87      90       1      72      78       4      72      87       5      66
      69       6      63      66       7      51      54       9      51      63
      10      45      51      12      39      45      14      36      39      15
      36      66      16      30      36      18      30      78      19      27
      30      20      21      27      20      21      72       4      12      21
      23       9      12      24       0       3      25       0       6      25
       0       9       1     186     189       1     171     177       4     171
     186       5     165     168      26     153     156       9     153     165
      10     147     153      28     141     144       6     141     147      29
     138     141      30     138     168      31     135     138      32     129
     135      34     126     129      35     126     168      36     120     126
      18     120     177      19     117     120      20     111     117      20
     111     171       4     102     111      23      99     102      24      90
      93      25      90      96      25      90      99       1     276     279
       1     261     267       4     261     276       5     255     258       6
     252     255       7     240     243       9     240     252      10     234
     240      12     228     234      14     225     228      15     225     255
      16     219     225      18     219     267      19     216     219      20
     210     216      20     210     261       4     201     210      23     198
     201      24     189     192      25     189     195      25     189     198
       1     375     378       1     360     366       4     360     375       5
     354     357      26     342     345       9     342     354      10     336
     342      28     330     333       6     330     336      29     327     330
      30     327     357      31     324     327      32     318     324      34
     315     318      35     315     357      36     309     315      18     309
     366      19     306     309      20     300     306      20     300     360
       4     291     300      23     288     291      24     279     282      25
     279     285      25     279     288       1     471     474       1     456
     462       4     456     471       5     450     453      26     444     450
      38     441     444      38     429     432       9     429     441      10
     426     429      39     426     453      31     423     426      32     417
     423      41     414     417      42     414     453      36     408     414
      18     408     462      19     405     408      20     399     405      20
     399     456       4     390     399      23     387     390      24     378
     381      25     378     384      25     378     387       1     567     570
       1     552     558       4     552     567       5     546     549      26
     540     546      38     537     540      38     525     528       9     525
     537      10     522     525      39     522     549      31     519     522
      32     513     519      41     510     513      42     510     549      36
     504     510      18     504     558      19     501     504      20     495
     501      20     495     552       4     486     495      23     483     486
      24     474     477      25     474     480      25     474     483       1
     663     666       1     648     654       4     648     663       5     642
     645       6     636     642      29     630     633       6     630     636
      29     615     618      43     615     630      44     609     615      46
     606     609      47     606     642      16     600     606      18     600
     654      19     597     600      20     591     597      20     591     648
       4     582     591      23     579     582      24     570     573      25
     570     576      25     570     579       1     759     762       1     744
     750       4     744     759       5     738     741       6     732     738
      29     726     729       6     726     732      29     711     714      43
     711     726      44     705     711      46     702     705      47     702
     738      16     696     702      18     696     750      19     693     696
      20     687     693      20     687     744       4     678     687      23
     675     678      24     666     669      25     666     672      25     666
     675       1     849     852       1     834     840       4     834     849
       5     828     831       6     825     828       7     813     816       9
     813     825      10     807     813      12     801     807      14     798
     801      15     798     828      16     792     798      18     792     840
      19     789     792      20     783     789      20     783     834       4
     774     783      23     771     774      24     762     765      25     762
     768      25     762     771       1     948     951       1     933     939
       4     933     948       5     927     930      26     915     918       9
     915     927      10     909     915      28     903     906       6     903
     909      29     900     903      30     900     930      31     897     900
      32     891     897      34     888     891      35     888     930      36
     882     888      18     882     939      19     879     882      20     873
     879      20     873     933       4     864     873      23     861     864
      24     852     855      25     852     858      25     852     861       1
    1038    1041       1    1023    1029       4    1023    1038       5    1017
    1020       6    1014    1017       7    1002    1005       9    1002    1014
      10     996    1002      12     990     996      14     987     990      15
     987    1017      16     981     987      18     981    1029      19     978
     981      20     972     978      20     972    1023       4     963     972
      23     960     963      24     951     954      25     951     957      25
     951     960       1    1122    1128       4    1122    1137       5    1116
    1119      26    1104    1107       9    1104    1116      10    1098    1104
      28    1092    1095       6    1092    1098      29    1089    1092      30
    1089    1119      31    1086    1089      32    1080    1086      34    1077
    1080      35    1077    1119      36    1071    1077      18    1071    1128
      19    1068    1071      20    1062    1068      20    1062    1122       4
    1053    1062      23    1050    1053      24    1041    1044      25    1041
    1047      25    1041    1050       1    1227    1230       1    1212    1218
       4    1212    1227       5    1206    1209       6    1203    1206       7
    1191    1194       9    1191    1203      10    1185    1191      12    1179
    1185      14    1176    1179      15    1176    1206      16    1170    1176
      18    1170    1218      19    1167    1170      20    1161    1167      20
    1161    1212       4    1152    1161      23    1149    1152      24    1140
    1143      25    1140    1146      25    1140    1149       1    1326    1329
       1    1311    1317       4    1311    1326       5    1305    1308      26
    1293    1296       9    1293    1305      10    1287    1293      28    1281
    1284       6    1281    1287      29    1278    1281      30    1278    1308
      31    1275    1278      32    1269    1275      34    1266    1269      35
    1266    1308      36    1260    1266      18    1260    1317      19    1257
    1260      20    1251    1257      20    1251    1311       4    1242    1251
      23    1239    1242      24    1230    1233      25    1230    1236      25
    1230    1239       1    1416    1419       1    1401    1407       4    1401
    1416       5    1395    1398       6    1392    1395       7    1380    1383
       9    1380    1392      10    1374    1380      12    1368    1374      14
    1365    1368      15    1365    1395      16    1359    1365      18    1359
    1407      19    1356    1359      20    1350    1356      20    1350    1401
       4    1341    1350      23    1338    1341      24    1329    1332      25
    1329    1335      25    1329    1338       1    1515    1518       1    1500
    1506       4    1500    1515       5    1494    1497      26    1482    1485
       9    1482    1494      10    1476    1482      28    1470    1473       6
    1470    1476      29    1467    1470      30    1467    1497      31    1464
    1467      32    1458    1464      34    1455    1458      35    1455    1497
      36    1449    1455      18    1449    1506      19    1446    1449      20
    1440    1446      20    1440    1500       4    1431    1440      23    1428
    1431      24    1419    1422      25    1419    1425      25    1419    1428
       1    1611    1614       1    1596    1602       4    1596    1611       5
    1590    1593      26    1584    1590      38    1581    1584      38    1569
    1572       9    1569    1581      10    1566    1569      39    1566    1593
      31    1563    1566      32    1557    1563      41    1554    1557      42
    1554    1593      36    1548    1554      18    1548    1602      19    1545
    1548      20    1539    1545      20    1539    1596       4    1530    1539
      23    1527    1530      24    1518    1521      25    1518    1524      25
    1518    1527       1    1707    1710       1    1692    1698       4    1692
    1707       5    1686    1689      26    1680    1686      38    1677    1680
      38    1665    1668       9    1665    1677      10    1662    1665      39
    1662    1689      31    1659    1662      32    1653    1659      41    1650
    1653      42    1650    1689      36    1644    1650      18    1644    1698
      19    1641    1644      20    1635    1641      20    1635    1692       4
    1626    1635      23    1623    1626      24    1614    1617      25    1614
    1620      25    1614    1623       1    1803    1806       1    1788    1794
       4    1788    1803       5    1782    1785       6    1776    1782      29
    1770    1773       6    1770    1776      29    1755    1758      43    1755
    1770      44    1749    1755      46    1746    1749      47    1746    1782
      16    1740    1746      18    1740    1794      19    1737    1740      20
    1731    1737      20    1731    1788       4    1722    1731      23    1719
    1722      24    1710    1713      25    1710    1716      25    1710    1719
       1    1899    1902       1    1884    1890       4    1884    1899       5
    1878    1881       6    1872    1878      29    1866    1869       6    1866
    1872      29    1851    1854      43    1851    1866      44    1845    1851
      46    1842    1845      47    1842    1878      16    1836    1842      18
    1836    1890      19    1833    1836      20    1827    1833      20    1827
    1884       4    1818    1827      23    1815    1818      24    1806    1809
      25    1806    1812      25    1806    1815       1    1989    1992       1
    1974    1980       4    1974    1989       5    1968    1971       6    1965
    1968       7    1953    1956       9    1953    1965      10    1947    1953
      12    1941    1947      14    1938    1941      15    1938    1968      16
    1932    1938      18    1932    1980      19    1929    1932      20    1923
    1929      20    1923    1974       4    1914    1923      23    1911    1914
      24    1902    1905      25    1902    1908      25    1902    1911       1
    2088    2091       1    2073    2079       4    2073    2088       5    2067
    2070      26    2055    2058       9    2055    2067      10    2049    2055
      28    2043    2046       6    2043    2049      29    2040    2043      30
    2040    2070      31    2037    2040      32    2031    2037      34    2028
    2031      35    2028    2070      36    2022    2028      18    2022    2079
      19    2019    2022      20    2013    2019      20    2013    2073       4
    2004    2013      23    2001    2004      24    1992    1995      25    1992
    1998      25    1992    2001       1    2178    2181       1    2163    2169
       4    2163    2178       5    2157    2160       6    2154    2157       7
    2142    2145       9    2142    2154      10    2136    2142      12    2130
    2136      14    2127    2130      15    2127    2157      16    2121    2127
      18    2121    2169      19    2118    2121      20    2112    2118      20
    2112    2163       4    2103    2112      23    2100    2103      24    2091
    2094      25    2091    2097      25    2091    2100       1    2262    2268
       4    2262    2277       5    2256    2259      26    2244    2247       9
    2244    2256      10    2238    2244      28    2232    2235       6    2232
    2238      29    2229    2232      30    2229    2259      31    2226    2229
      32    2220    2226      34    2217    2220      35    2217    2259      36
    2211    2217      18    2211    2268      19    2208    2211      20    2202
    2208      20    2202    2262       4    2193    2202      23    2190    2193
      24    2181    2184      25    2181    2187      25    2181    2190       1
%FLAG ANGLES_INC_HYDROGEN                                                       
%FORMAT(10I8)                                                                   
      81      78      84       3      75      72      78       5      75      72
      87       6      72      78      81       7      72      78      84       7
      57      54      60      10      51      54      57      12      51      54
      60      12      48      45      51      14      42      39      45      17
      39      45      48      19      36      39      42      22      33      30
      36      26      33      30      78      27      30      78      81      31
      30      78      84      31      27      30      33      33      24      21
      27      36      24      21      72      37      21      72      75       5
      18      12      21      40      15      12      18      41      15      12
      21      40      12      21      24      42       9      12      15      45
       9      12      18      45     180     177     183       3     174     171
     177       5     174     171     186       6     171     177     180       7
     171     177     183       7     159     156     162      10     153     156
     159      12     153     156     162      12     150     147     153      50
     141     147     150      55     132     129     135      62     126     129
     132      65     123     120     126      26     123     120     177      27
     120     177     180      31     120     177     183      31     117     120
     123      33     114     111     117      36     114     111     171      37
     111     171     174       5     108     102     111      40     105     102
     108      41     105     102     111      40     102     111     114      42
      99     102     105      45      99     102     108      45     270     267
     273       3     264     261     267       5     264     261     276       6
     261     267     270       7     261     267     273       7     246     243
     249      10     240     243     246      12     240     243     249      12
     237     234     240      14     231     228     234      17     228     234
     237      19     225     228     231      22     222     219     225      26
     222     219     267      27     219     267     270      31     219     267
     273      31     216     219     222      33     213     210     216      36
     213     210     261      37     210     261     264       5     207     201
     210      40     204     201     207      41     204     201     210      40
     201     210     213      42     198     201     204      45     198     201
     207      45     369     366     372       3     363     360     366       5
     363     360     375       6     360     366     369       7     360     366
     372       7     348     345     351      10     342     345     348      12
     342     345     351      12     339     336     342      50     330     336
     339      55     321     318     324      62     315     318     321      65
     312     309     315      26     312     309     366      27     309     366
     369      31     309     366     372      31     306     309     312      33
     303     300     306      36     303     300     360      37     300     360
     363       5     297     291     300      40     294     291     297      41
     294     291     300      40     291     300     303      42     288     291
     294      45     288     291     297      45     465     462     468       3
     459     456     462       5     459     456     471       6     456     462
     465       7     456     462     468       7     447     444     450      71
     441     444     447      71     435     432     438      10     429     432
     435      12     429     432     438      12     420     417     423      79
     414     417     420      82     411     408     414      26     411     408
     462      27     408     462     465      31     408     462     468      31
     405     408     411      33     402     399     405      36     402     399
     456      37     399     456     459       5     396     390     399      40
     393     390     396      41     393     390     399      40     390     399
     402      42     387     390     393      45     387     390     396      45
     561     558     564       3     555     552     558       5     555     552
     567       6     552     558     561       7     552     558     564       7
     543     540     546      71     537     540     543      71     531     528
     534      10     525     528     531      12     525     528     534      12
     516     513     519      79     510     513     516      82     507     504
     510      26     507     504     558      27     504     558     561      31
     504     558     564      31     501     504     507      33     498     495
     501      36     498     495     552      37     495     552     555       5
     492     486     495      40     489     486     492      41     489     486
     495      40     486     495     498      42     483     486     489      45
     483     486     492      45     657     654     660       3     651     648
     654       5     651     648     663       6     648     654     657       7
     648     654     660       7     639     636     642      55     630     636
     639      55     624     618     627       3     621     618     624       3
     621     618     627       3     615     618     621      87     615     618
     624      87     615     618     627      87     612     609     615      90
     606     609     612      94     603     600     606      26     603     600
     654      27     600     654     657      31     600     654     660      31
     597     600     603      33     594     591     597      36     594     591
     648      37     591     648     651       5     588     582     591      40
     585     582     588      41     585     582     591      40     582     591
     594      42     579     582     585      45     579     582     588      45
     753     750     756       3     747     744     750       5     747     744
     759       6     744     750     753       7     744     750     756       7
     735     732     738      55     726     732     735      55     720     714
     723       3     717     714     720       3     717     714     723       3
     711     714     717      87     711     714     720      87     711     714
     723      87     708     705     711      90     702     705     708      94
     699     696     702      26     699     696     750      27     696     750
     753      31     696     750     756      31     693     696     699      33
     690     687     693      36     690     687     744      37     687     744
     747       5     684     678     687      40     681     678     684      41
     681     678     687      40     678     687     690      42     675     678
     681      45     675     678     684      45     843     840     846       3
     837     834     840       5     837     834     849       6     834     840
     843       7     834     840     846       7     819     816     822      10
     813     816     819      12     813     816     822      12     810     807
     813      14     804     801     807      17     801     807     810      19
     798     801     804      22     795     792     798      26     795     792
     840      27     792     840     843      31     792     840     846      31
     789     792     795      33     786     783     789      36     786     783
     834      37     783     834     837       5     780     774     783      40
     777     774     780      41     777     774     783      40     774     783
     786      42     771     774     777      45     771     774     780      45
     942     939     945       3     936     933     939       5     936     933
     948       6     933     939     942       7     933     939     945       7
     921     918     924      10     915     918     921      12     915     918
     924      12     912     909     915      50     903     909     912      55
     894     891     897      62     888     891     894      65     885     882
     888      26     885     882     939      27     882     939     942      31
     882     939     945      31     879     882     885      33     876     873
     879      36     876     873     933      37     873     933     936       5
     870     864     873      40     867     864     870      41     867     864
     873      40     864     873     876      42     861     864     867      45
     861     864     870      45    1032    1029    1035       3    1026    1023
    1029       5    1026    1023    1038       6    1023    1029    1032       7
    1023    1029    1035       7    1008    1005    1011      10    1002    1005
    1008      12    1002    1005    1011      12     999     996    1002      14
     993     990     996      17     990     996     999      19     987     990
     993      22     984     981     987      26     984     981    1029      27
     981    1029    1032      31     981    1029    1035      31     978     981
     984      33     975     972     978      36     975     972    1023      37
     972    1023    1026       5     969     963     972      40     966     963
     969      41     966     963     972      40     963     972     975      42
     960     963     966      45     960     963     969      45    1131    1128
    1134       3    1125    1122    1128       5    1125    1122    1137       6
    1122    1128    1131       7    1122    1128    1134       7    1110    1107
    1113      10    1104    1107    1110      12    1104    1107    1113      12
    1101    1098    1104      50    1092    1098    1101      55    1083    1080
    1086      62    1077    1080    1083      65    1074    1071    1077      26
    1074    1071    1128      27    1071    1128    1131      31    1071    1128
    1134      31    1068    1071    1074      33    1065    1062    1068      36
    1065    1062    1122      37    1062    1122    1125       5    1059    1053
    1062      40    1056    1053    1059      41    1056    1053    1062      40
    1053    1062    1065      42    1050    1053    1056      45    1050    1053
    1059      45    1221    1218    1224       3    1215    1212    1218       5
    1215    1212    1227       6    1212    1218    1221       7    1212    1218
    1224       7    1197    1194    1200      10    1191    1194    1197      12
    1191    1194    1200      12    1188    1185    1191      14    1182    1179
    1185      17    1179    1185    1188      19    1176    1179    1182      22
    1173    1170    1176      26    1173    1170    1218      27    1170    1218
    1221      31    1170    1218    1224      31    1167    1170    1173      33
    1164    1161    1167      36    1164    1161    1212      37    1161    1212
    1215       5    1158    1152    1161      40    1155    1152    1158      41
    1155    1152    1161      40    1152    1161    1164      42    1149    1152
    1155      45    1149    1152    1158      45    1320    1317    1323       3
    1314    1311    1317       5    1314    1311    1326       6    1311    1317
    1320       7    1311    1317    1323       7    1299    1296    1302      10
    1293    1296    1299      12    1293    1296    1302      12    1290    1287
    1293      50    1281    1287    1290      55    1272    1269    1275      62
    1266    1269    1272      65    1263    1260    1266      26    1263    1260
    1317      27    1260    1317    1320      31    1260    1317    1323      31
    1257    1260    1263      33    1254    1251    1257      36    1254    1251
    1311      37    1251    1311    1314       5    1248    1242    1251      40
    1245    1242    1248      41    1245    1242    1251      40    1242    1251
    1254      42    1239    1242    1245      45    1239    1242    1248      45
    1410    1407    1413       3    1404    1401    1407       5    1404    1401
    1416       6    1401    1407    1410       7    1401    1407    1413       7
    1386    1383    1389      10    1380    1383    1386      12    1380    1383
    1389      12    1377    1374    1380      14    1371    1368    1374      17
    1368    1374    1377      19    1365    1368    1371      22    1362    1359
    1365      26    1362    1359    1407      27    1359    1407    1410      31
    1359    1407    1413      31    1356    1359    1362      33    1353    1350
    1356      36    1353    1350    1401      37    1350    1401    1404       5
    1347    1341    1350      40    1344    1341    1347      41    1344    1341
    1350      40    1341    1350    1353      42    1338    1341    1344      45
    1338    1341    1347      45    1509    1506    1512       3    1503    1500
    1506       5    1503    1500    1515       6    1500    1506    1509       7
    1500    1506    1512       7    1488    1485    1491      10    1482    1485
    1488      12    1482    1485    1491      12    1479    1476    1482      50
    1470    1476    1479      55    1461    1458    1464      62    1455    1458
    1461      65    1452    1449    1455      26    1452    1449    1506      27
    1449    1506    1509      31    1449    1506    1512      31    1446    1449
    1452      33    1443    1440    1446      36    1443    1440    1500      37
    1440    1500    1503       5    1437    1431    1440      40    1434    1431
    1437      41    1434    1431    1440      40    1431    1440    1443      42
    1428    1431    1434      45    1428    1431    1437      45    1605    1602
    1608       3    1599    1596    1602       5    1599    1596    1611       6
    1596    1602    1605       7    1596    1602    1608       7    1587    1584
    1590      71    1581    1584    1587      71    1575    1572    1578      10
    1569    1572    1575      12    1569    1572    1578      12    1560    1557
    1563      79    1554    1557    1560      82    1551    1548    1554      26
    1551    1548    1602      27    1548    1602    1605      31    1548    1602
    1608      31    1545    1548    1551      33    1542    1539    1545      36
    1542    1539    1596      37    1539    1596    1599       5    1536    1530
    1539      40    1533    1530    1536      41    1533    1530    1539      40
    1530    1539    1542      42    1527    1530    1533      45    1527    1530
    1536      45    1701    1698    1704       3    1695    1692    1698       5
    1695    1692    1707       6    1692    1698    1701       7    1692    1698
    1704       7    1683    1680    1686      71    1677    1680    1683      71
    1671    1668    1674      10    1665    1668    1671      12    1665    1668
    1674      12    1656    1653    1659      79    1650    1653    1656      82
    1647    1644    1650      26    1647    1644    1698      27    1644    1698
    1701      31    1644    1698    1704      31    1641    1644    1647      33
    1638    1635    1641      36    1638    1635    1692      37    1635    1692
    1695       5    1632    1626    1635      40    1629    1626    1632      41
    1629    1626    1635      40    1626    1635    1638      42    1623    1626
    1629      45    1623    1626    1632      45    1797    1794    1800       3
    1791    1788    1794       5    1791    1788    1803       6    1788    1794
    1797       7    1788    1794    1800       7    1779    1776    1782      55
    1770    1776    1779      55    1764    1758    1767       3    1761    1758
    1764       3    1761    1758    1767       3    1755    1758    1761      87
    1755    1758    1764      87    1755    1758    1767      87    1752    1749
    1755      90    1746    1749    1752      94    1743    1740    1746      26
    1743    1740    1794      27    1740    1794    1797      31    1740    1794
    1800      31    1737    1740    1743      33    1734    1731    1737      36
    1734    1731    1788      37    1731    1788    1791       5    1728    1722
    1731      40    1725    1722    1728      41    1725    1722    1731      40
    1722    1731    1734      42    1719    1722    1725      45    1719    1722
    1728      45    1893    1890    1896       3    1887    1884    1890       5
    1887    1884    1899       6    1884    1890    1893       7    1884    1890
    1896       7    1875    1872    1878      55    1866    1872    1875      55
    1860    1854    1863       3    1857    1854    1860       3    1857    1854
    1863       3    1851    1854    1857      87    1851    1854    1860      87
    1851    1854    1863      87    1848    1845    1851      90    1842    1845
    1848      94    1839    1836    1842      26    1839    1836    1890      27
    1836    1890    1893      31    1836    1890    1896      31    1833    1836
    1839      33    1830    1827    1833      36    1830    1827    1884      37
    1827    1884    1887       5    1824    1818    1827      40    1821    1818
    1824      41    1821    1818    1827      40    1818    1827    1830      42
    1815    1818    1821      45    1815    1818    1824      45    1983    1980
    1986       3    1977    1974    1980       5    1977    1974    1989       6
    1974    1980    1983       7    1974    1980    1986       7    1959    1956
    1962      10    1953    1956    1959      12    1953    1956    1962      12
    1950    1947    1953      14    1944    1941    1947      17    1941    1947
    1950      19    1938    1941    1944      22    1935    1932    1938      26
    1935    1932    1980      27    1932    1980    1983      31    1932    1980
    1986      31    1929    1932    1935      33    1926    1923    1929      36
    1926    1923    1974      37    1923    1974    1977       5    1920    1914
    1923      40    1917    1914    1920      41    1917    1914    1923      40
    1914    1923    1926      42    1911    1914    1917      45    1911    1914
    1920      45    2082    2079    2085       3    2076    2073    2079       5
    2076    2073    2088       6    2073    2079    2082       7    2073    2079
    2085       7    2061    2058    2064      10    2055    2058    2061      12
    2055    2058    2064      12    2052    2049    2055      50    2043    2049
    2052      55    2034    2031    2037      62    2028    2031    2034      65
    2025    2022    2028      26    2025    2022    2079      27    2022    2079
    2082      31    2022    2079    2085      31    2019    2022    2025      33
    2016    2013    2019      36    2016    2013    2073      37    2013    2073
    2076       5    2010    2004    2013      40    2007    2004    2010      41
    2007    2004    2013      40    2004    2013    2016      42    2001    2004
    2007      45    2001    2004    2010      45    2172    2169    2175       3
    2166    2163    2169       5    2166    2163    2178       6    2163    2169
    2172       7    2163    2169    2175       7    2148    2145    2151      10
    2142    2145    2148      12    2142    2145    2151      12    2139    2136
    2142      14    2133    2130    2136      17    2130    2136    2139      19
    2127    2130    2133      22    2124    2121    2127      26    2124    2121
    2169      27    2121    2169    2172      31    2121    2169    2175      31
    2118    2121    2124      33    2115    2112    2118      36    2115    2112
    2163      37    2112    2163    2166       5    2109    2103    2112      40
    2106    2103    2109      41    2106    2103    2112      40    2103    2112
    2115      42    2100    2103    2106      45    2100    2103    2109      45
    2271    2268    2274       3    2265    2262    2268       5    2265    2262
    2277       6    2262    2268    2271       7    2262    2268    2274       7
    2250    2247    2253      10    2244    2247    2250      12    2244    2247
    2253      12    2241    2238    2244      50    2232    2238    2241      55
    2223    2220    2226      62    2217    2220    2223      65    2214    2211
    2217      26    2214    2211    2268      27    2211    2268    2271      31
    2211    2268    2274      31    2208    2211    2214      33    2205    2202
    2208      36    2205    2202    2262      37    2202    2262    2265       5
    2199    2193    2202      40    2196    2193    2199      41    2196    2193
    2202      40    2193    2202    2205      42    2190    2193    2196      45
    2190    2193    2199      45
%FLAG ANGLES_WITHOUT_HYDROGEN                                                   
%FORMAT(10I8)                                                                   
      87      90      93       1      87      90      96       1      87      90
      99       2      78      72      87       4      72      87      90       8
      63      66      69       9      54      51      63      11      51      63
      66      13      45      51      54      15      45      51      63      16
      39      36      66      18      39      45      51      20      36      30
      78      21      36      39      45      23      36      66      63      24
      36      66      69      25      30      36      39      28      30      36
      66      29      30      78      72      30      27      21      72      32
      27      30      36      34      27      30      78      35      21      27
      30      38      21      72      78      39      21      72      87       4
      12      21      27      43      12      21      72      44       9      12
      21      46       6       0       9       1       3       0       6      47
       3       0       9       1       0       9      12      48     186     189
     192       1     186     189     195       1     186     189     198       2
     177     171     186       4     171     186     189       8     156     153
     165      11     153     165     168      49     147     153     156      51
     147     153     165      52     144     141     147      53     141     138
     168      54     141     147     153      56     138     141     144      57
     138     141     147      58     138     168     165      59     135     138
     141      60     135     138     168      61     129     126     168      63
     129     135     138      64     126     120     177      21     126     129
     135      66     126     168     138      67     126     168     165      68
     120     126     129      69     120     126     168      70     120     177
     171      30     117     111     171      32     117     120     126      34
     117     120     177      35     111     117     120      38     111     171
     177      39     111     171     186       4     102     111     117      43
     102     111     171      44      99     102     111      46      96      90
      99       1      93      90      96      47      93      90      99       1
      90      99     102      48     276     279     282       1     276     279
     285       1     276     279     288       2     267     261     276       4
     261     276     279       8     252     255     258       9     243     240
     252      11     240     252     255      13     234     240     243      15
     234     240     252      16     228     225     255      18     228     234
     240      20     225     219     267      21     225     228     234      23
     225     255     252      24     225     255     258      25     219     225
     228      28     219     225     255      29     219     267     261      30
     216     210     261      32     216     219     225      34     216     219
     267      35     210     216     219      38     210     261     267      39
     210     261     276       4     201     210     216      43     201     210
     261      44     198     201     210      46     195     189     198       1
     192     189     195      47     192     189     198       1     189     198
     201      48     375     378     381       1     375     378     384       1
     375     378     387       2     366     360     375       4     360     375
     378       8     345     342     354      11     342     354     357      49
     336     342     345      51     336     342     354      52     333     330
     336      53     330     327     357      54     330     336     342      56
     327     330     333      57     327     330     336      58     327     357
     354      59     324     327     330      60     324     327     357      61
     318     315     357      63     318     324     327      64     315     309
     366      21     315     318     324      66     315     357     327      67
     315     357     354      68     309     315     318      69     309     315
     357      70     309     366     360      30     306     300     360      32
     306     309     315      34     306     309     366      35     300     306
     309      38     300     360     366      39     300     360     375       4
     291     300     306      43     291     300     360      44     288     291
     300      46     285     279     288       1     282     279     285      47
     282     279     288       1     279     288     291      48     471     474
     477       1     471     474     480       1     471     474     483       2
     462     456     471       4     456     471     474       8     444     450
     453      72     441     444     450      73     432     429     441      11
     429     426     453      74     429     441     444      75     426     429
     432      76     426     429     441      77     426     453     450      59
     423     426     429      78     423     426     453      61     417     414
     453      80     417     423     426      81     414     408     462      21
     414     417     423      83     414     453     426      67     414     453
     450      68     408     414     417      84     408     414     453      70
     408     462     456      30     405     399     456      32     405     408
     414      34     405     408     462      35     399     405     408      38
     399     456     462      39     399     456     471       4     390     399
     405      43     390     399     456      44     387     390     399      46
     384     378     387       1     381     378     384      47     381     378
     387       1     378     387     390      48     567     570     573       1
     567     570     576       1     567     570     579       2     558     552
     567       4     552     567     570       8     540     546     549      72
     537     540     546      73     528     525     537      11     525     522
     549      74     525     537     540      75     522     525     528      76
     522     525     537      77     522     549     546      59     519     522
     525      78     519     522     549      61     513     510     549      80
     513     519     522      81     510     504     558      21     510     513
     519      83     510     549     522      67     510     549     546      68
     504     510     513      84     504     510     549      70     504     558
     552      30     501     495     552      32     501     504     510      34
     501     504     558      35     495     501     504      38     495     552
     558      39     495     552     567       4     486     495     501      43
     486     495     552      44     483     486     495      46     480     474
     483       1     477     474     480      47     477     474     483       1
     474     483     486      48     663     666     669       1     663     666
     672       1     663     666     675       2     654     648     663       4
     648     663     666       8     636     642     645      53     633     630
     636      53     630     636     642      85     618     615     630      86
     615     630     633      88     615     630     636      89     609     606
     642      91     609     615     618      92     609     615     630      93
     606     600     654      21     606     609     615      95     606     642
     636      96     606     642     645      25     600     606     609      97
     600     606     642      29     600     654     648      30     597     591
     648      32     597     600     606      34     597     600     654      35
     591     597     600      38     591     648     654      39     591     648
     663       4     582     591     597      43     582     591     648      44
     579     582     591      46     576     570     579       1     573     570
     576      47     573     570     579       1     570     579     582      48
     759     762     765       1     759     762     768       1     759     762
     771       2     750     744     759       4     744     759     762       8
     732     738     741      53     729     726     732      53     726     732
     738      85     714     711     726      86     711     726     729      88
     711     726     732      89     705     702     738      91     705     711
     714      92     705     711     726      93     702     696     750      21
     702     705     711      95     702     738     732      96     702     738
     741      25     696     702     705      97     696     702     738      29
     696     750     744      30     693     687     744      32     693     696
     702      34     693     696     750      35     687     693     696      38
     687     744     750      39     687     744     759       4     678     687
     693      43     678     687     744      44     675     678     687      46
     672     666     675       1     669     666     672      47     669     666
     675       1     666     675     678      48     849     852     855       1
     849     852     858       1     849     852     861       2     840     834
     849       4     834     849     852       8     825     828     831       9
     816     813     825      11     813     825     828      13     807     813
     816      15     807     813     825      16     801     798     828      18
     801     807     813      20     798     792     840      21     798     801
     807      23     798     828     825      24     798     828     831      25
     792     798     801      28     792     798     828      29     792     840
     834      30     789     783     834      32     789     792     798      34
     789     792     840      35     783     789     792      38     783     834
     840      39     783     834     849       4     774     783     789      43
     774     783     834      44     771     774     783      46     768     762
     771       1     765     762     768      47     765     762     771       1
     762     771     774      48     948     951     954       1     948     951
     957       1     948     951     960       2     939     933     948       4
     933     948     951       8     918     915     927      11     915     927
     930      49     909     915     918      51     909     915     927      52
     906     903     909      53     903     900     930      54     903     909
     915      56     900     903     906      57     900     903     909      58
     900     930     927      59     897     900     903      60     897     900
     930      61     891     888     930      63     891     897     900      64
     888     882     939      21     888     891     897      66     888     930
     900      67     888     930     927      68     882     888     891      69
     882     888     930      70     882     939     933      30     879     873
     933      32     879     882     888      34     879     882     939      35
     873     879     882      38     873     933     939      39     873     933
     948       4     864     873     879      43     864     873     933      44
     861     864     873      46     858     852     861       1     855     852
     858      47     855     852     861       1     852     861     864      48
    1038    1041    1044       1    1038    1041    1047       1    1038    1041
    1050       2    1029    1023    1038       4    1023    1038    1041       8
    1014    1017    1020       9    1005    1002    1014      11    1002    1014
    1017      13     996    1002    1005      15     996    1002    1014      16
     990     987    1017      18     990     996    1002      20     987     981
    1029      21     987     990     996      23     987    1017    1014      24
     987    1017    1020      25     981     987     990      28     981     987
    1017      29     981    1029    1023      30     978     972    1023      32
     978     981     987      34     978     981    1029      35     972     978
     981      38     972    1023    1029      39     972    1023    1038       4
     963     972     978      43     963     972    1023      44     960     963
     972      46     957     951     960       1     954     951     957      47
     954     951     960       1     951     960     963      48    1128    1122
    1137       4    1107    1104    1116      11    1104    1116    1119      49
    1098    1104    1107      51    1098    1104    1116      52    1095    1092
    1098      53    1092    1089    1119      54    1092    1098    1104      56
    1089    1092    1095      57    1089    1092    1098      58    1089    1119
    1116      59    1086    1089    1092      60    1086    1089    1119      61
    1080    1077    1119      63    1080    1086    1089      64    1077    1071
    1128      21    1077    1080    1086      66    1077    1119    1089      67
    1077    1119    1116      68    1071    1077    1080      69    1071    1077
    1119      70    1071    1128    1122      30    1068    1062    1122      32
    1068    1071    1077      34    1068    1071    1128      35    1062    1068
    1071      38    1062    1122    1128      39    1062    1122    1137       4
    1053    1062    1068      43    1053    1062    1122      44    1050    1053
    1062      46    1047    1041    1050       1    1044    1041    1047      47
    1044    1041    1050       1    1041    1050    1053      48    1227    1230
    1233       1    1227    1230    1236       1    1227    1230    1239       2
    1218    1212    1227       4    1212    1227    1230       8    1203    1206
    1209       9    1194    1191    1203      11    1191    1203    1206      13
    1185    1191    1194      15    1185    1191    1203      16    1179    1176
    1206      18    1179    1185    1191      20    1176    1170    1218      21
    1176    1179    1185      23    1176    1206    1203      24    1176    1206
    1209      25    1170    1176    1179      28    1170    1176    1206      29
    1170    1218    1212      30    1167    1161    1212      32    1167    1170
    1176      34    1167    1170    1218      35    1161    1167    1170      38
    1161    1212    1218      39    1161    1212    1227       4    1152    1161
    1167      43    1152    1161    1212      44    1149    1152    1161      46
    1146    1140    1149       1    1143    1140    1146      47    1143    1140
    1149       1    1140    1149    1152      48    1326    1329    1332       1
    1326    1329    1335       1    1326    1329    1338       2    1317    1311
    1326       4    1311    1326    1329       8    1296    1293    1305      11
    1293    1305    1308      49    1287    1293    1296      51    1287    1293
    1305      52    1284    1281    1287      53    1281    1278    1308      54
    1281    1287    1293      56    1278    1281    1284      57    1278    1281
    1287      58    1278    1308    1305      59    1275    1278    1281      60
    1275    1278    1308      61    1269    1266    1308      63    1269    1275
    1278      64    1266    1260    1317      21    1266    1269    1275      66
    1266    1308    1278      67    1266    1308    1305      68    1260    1266
    1269      69    1260    1266    1308      70    1260    1317    1311      30
    1257    1251    1311      32    1257    1260    1266      34    1257    1260
    1317      35    1251    1257    1260      38    1251    1311    1317      39
    1251    1311    1326       4    1242    1251    1257      43    1242    1251
    1311      44    1239    1242    1251      46    1236    1230    1239       1
    1233    1230    1236      47    1233    1230    1239       1    1230    1239
    1242      48    1416    1419    1422       1    1416    1419    1425       1
    1416    1419    1428       2    1407    1401    1416       4    1401    1416
    1419       8    1392    1395    1398       9    1383    1380    1392      11
    1380    1392    1395      13    1374    1380    1383      15    1374    1380
    1392      16    1368    1365    1395      18    1368    1374    1380      20
    1365    1359    1407      21    1365    1368    1374      23    1365    1395
    1392      24    1365    1395    1398      25    1359    1365    1368      28
    1359    1365    1395      29    1359    1407    1401      30    1356    1350
    1401      32    1356    1359    1365      34    1356    1359    1407      35
    1350    1356    1359      38    1350    1401    1407      39    1350    1401
    1416       4    1341    1350    1356      43    1341    1350    1401      44
    1338    1341    1350      46    1335    1329    1338       1    1332    1329
    1335      47    1332    1329    1338       1    1329    1338    1341      48
    1515    1518    1521       1    1515    1518    1524       1    1515    1518
    1527       2    1506    1500    1515       4    1500    1515    1518       8
    1485    1482    1494      11    1482    1494    1497      49    1476    1482
    1485      51    1476    1482    1494      52    1473    1470    1476      53
    1470    1467    1497      54    1470    1476    1482      56    1467    1470
    1473      57    1467    1470    1476      58    1467    1497    1494      59
    1464    1467    1470      60    1464    1467    1497      61    1458    1455
    1497      63    1458    1464    1467      64    1455    1449    1506      21
    1455    1458    1464      66    1455    1497    1467      67    1455    1497
    1494      68    1449    1455    1458      69    1449    1455    1497      70
    1449    1506    1500      30    1446    1440    1500      32    1446    1449
    1455      34    1446    1449    1506      35    1440    1446    1449      38
    1440    1500    1506      39    1440    1500    1515       4    1431    1440
    1446      43    1431    1440    1500      44    1428    1431    1440      46
    1425    1419    1428       1    1422    1419    1425      47    1422    1419
    1428       1    1419    1428    1431      48    1611    1614    1617       1
    1611    1614    1620       1    1611    1614    1623       2    1602    1596
    1611       4    1596    1611    1614       8    1584    1590    1593      72
    1581    1584    1590      73    1572    1569    1581      11    1569    1566
    1593      74    1569    1581    1584      75    1566    1569    1572      76
    1566    1569    1581      77    1566    1593    1590      59    1563    1566
    1569      78    1563    1566    1593      61    1557    1554    1593      80
    1557    1563    1566      81    1554    1548    1602      21    1554    1557
    1563      83    1554    1593    1566      67    1554    1593    1590      68
    1548    1554    1557      84    1548    1554    1593      70    1548    1602
    1596      30    1545    1539    1596      32    1545    1548    1554      34
    1545    1548    1602      35    1539    1545    1548      38    1539    1596
    1602      39    1539    1596    1611       4    1530    1539    1545      43
    1530    1539    1596      44    1527    1530    1539      46    1524    1518
    1527       1    1521    1518    1524      47    1521    1518    1527       1
    1518    1527    1530      48    1707    1710    1713       1    1707    1710
    1716       1    1707    1710    1719       2    1698    1692    1707       4
    1692    1707    1710       8    1680    1686    1689      72    1677    1680
    1686      73    1668    1665    1677      11    1665    1662    1689      74
    1665    1677    1680      75    1662    1665    1668      76    1662    1665
    1677      77    1662    1689    1686      59    1659    1662    1665      78
    1659    1662    1689      61    1653    1650    1689      80    1653    1659
    1662      81    1650    1644    1698      21    1650    1653    1659      83
    1650    1689    1662      67    1650    1689    1686      68    1644    1650
    1653      84    1644    1650    1689      70    1644    1698    1692      30
    1641    1635    1692      32    1641    1644    1650      34    1641    1644
    1698      35    1635    1641    1644      38    1635    1692    1698      39
    1635    1692    1707       4    1626    1635    1641      43    1626    1635
    1692      44    1623    1626    1635      46    1620    1614    1623       1
    1617    1614    1620      47    1617    1614    1623       1    1614    1623
    1626      48    1803    1806    1809       1    1803    1806    1812       1
    1803    1806    1815       2    1794    1788    1803       4    1788    1803
    1806       8    1776    1782    1785      53    1773    1770    1776      53
    1770    1776    1782      85    1758    1755    1770      86    1755    1770
    1773      88    1755    1770    1776      89    1749    1746    1782      91
    1749    1755    1758      92    1749    1755    1770      93    1746    1740
    1794      21    1746    1749    1755      95    1746    1782    1776      96
    1746    1782    1785      25    1740    1746    1749      97    1740    1746
    1782      29    1740    1794    1788      30    1737    1731    1788      32
    1737    1740    1746      34    1737    1740    1794      35    1731    1737
    1740      38    1731    1788    1794      39    1731    1788    1803       4
    1722    1731    1737      43    1722    1731    1788      44    1719    1722
    1731      46    1716    1710    1719       1    1713    1710    1716      47
    1713    1710    1719       1    1710    1719    1722      48    1899    1902
    1905       1    1899    1902    1908       1    1899    1902    1911       2
    1890    1884    1899       4    1884    1899    1902       8    1872    1878
    1881      53    1869    1866    1872      53    1866    1872    1878      85
    1854    1851    1866      86    1851    1866    1869      88    1851    1866
    1872      89    1845    1842    1878      91    1845    1851    1854      92
    1845    1851    1866      93    1842    1836    1890      21    1842    1845
    1851      95    1842    1878    1872      96    1842    1878    1881      25
    1836    1842    1845      97    1836    1842    1878      29    1836    1890
    1884      30    1833    1827    1884      32    1833    1836    1842      34
    1833    1836    1890      35    1827    1833    1836      38    1827    1884
    1890      39    1827    1884    1899       4    1818    1827    1833      43
    1818    1827    1884      44    1815    1818    1827      46    1812    1806
    1815       1    1809    1806    1812      47    1809    1806    1815       1
    1806    1815    1818      48    1989    1992    1995       1    1989    1992
    1998       1    1989    1992    2001       2    1980    1974    1989       4
    1974    1989    1992       8    1965    1968    1971       9    1956    1953
    1965      11    1953    1965    1968      13    1947    1953    1956      15
    1947    1953    1965      16    1941    1938    1968      18    1941    1947
    1953      20    1938    1932    1980      21    1938    1941    1947      23
    1938    1968    1965      24    1938    1968    1971      25    1932    1938
    1941      28    1932    1938    1968      29    1932    1980    1974      30
    1929    1923    1974      32    1929    1932    1938      34    1929    1932
    1980      35    1923    1929    1932      38    1923    1974    1980      39
    1923    1974    1989       4    1914    1923    1929      43    1914    1923
    1974      44    1911    1914    1923      46    1908    1902    1911       1
    1905    1902    1908      47    1905    1902    1911       1    1902    1911
    1914      48    2088    2091    2094       1    2088    2091    2097       1
    2088    2091    2100       2    2079    2073    2088       4    2073    2088
    2091       8    2058    2055    2067      11    2055    2067    2070      49
    2049    2055    2058      51    2049    2055    2067      52    2046    2043
    2049      53    2043    2040    2070      54    2043    2049    2055      56
    2040    2043    2046      57    2040    2043    2049      58    2040    2070
    2067      59    2037    2040    2043      60    2037    2040    2070      61
    2031    2028    2070      63    2031    2037    2040      64    2028    2022
    2079      21    2028    2031    2037      66    2028    2070    2040      67
    2028    2070    2067      68    2022    2028    2031      69    2022    2028
    2070      70    2022    2079    2073      30    2019    2013    2073      32
    2019    2022    2028      34    2019    2022    2079      35    2013    2019
    2022      38    2013    2073    2079      39    2013    2073    2088       4
    2004    2013    2019      43    2004    2013    2073      44    2001    2004
    2013      46    1998    1992    2001       1    1995    1992    1998      47
    1995    1992    2001       1    1992    2001    2004      48    2178    2181
    2184       1    2178    2181    2187       1    2178    2181    2190       2
    2169    2163    2178       4    2163    2178    2181       8    2154    2157
    2160       9    2145    2142    2154      11    2142    2154    2157      13
    2136    2142    2145      15    2136    2142    2154      16    2130    2127
    2157      18    2130    2136    2142      20    2127    2121    2169      21
    2127    2130    2136      23    2127    2157    2154      24    2127    2157
    2160      25    2121    2127    2130      28    2121    2127    2157      29
    2121    2169    2163      30    2118    2112    2163      32    2118    2121
    2127      34    2118    2121    2169      35    2112    2118    2121      38
    2112    2163    2169      39    2112    2163    2178       4    2103    2112
    2118      43    2103    2112    2163      44    2100    2103    2112      46
    2097    2091    2100       1    2094    2091    2097      47    2094    2091
    2100       1    2091    2100    2103      48    2268    2262    2277       4
    2247    2244    2256      11    2244    2256    2259      49    2238    2244
    2247      51    2238    2244    2256      52    2235    2232    2238      53
    2232    2229    2259      54    2232    2238    2244      56    2229    2232
    2235      57    2229    2232    2238      58    2229    2259    2256      59
    2226    2229    2232      60    2226    2229    2259      61    2220    2217
    2259      63    2220    2226    2229      64    2217    2211    2268      21
    2217    2220    2226      66    2217    2259    2229      67    2217    2259
    2256      68    2211    2217    2220      69    2211    2217    2259      70
    2211    2268    2262      30    2208    2202    2262      32    2208    2211
    2217      34    2208    2211    2268      35    2202    2208    2211      38
    2202    2262    2268      39    2202    2262    2277       4    2193    2202
    2208      43    2193    2202    2262      44    2190    2193    2202      46
    2187    2181    2190       1    2184    2181    2187      47    2184    2181
    2190       1    2181    2190    2193      48
%FLAG DIHEDRALS_INC_HYDROGEN                                                    
%FORMAT(10I8)                                                                   
      84      78      72      87       4      81      78      72      87       4
      75      72      78      81       4      75      72      78      84       4
      75      72      87      90       8      60      54      51      63      14
      57      54      51      63      14      48      45      51      54      17
      48      45      51      63      17      45      51      54      57      14
      45      51      54      60      14      42      39      36      66      18
      42      39      45      48      19      42      39      45      51      19
      36      30      78      81       4      36      30      78      84       4
      36      39      45      48      19      33      30      36      39      13
      33      30      36      66      13      33      30      78      72       4
      33      30      78      81       4      33      30      78      84       4
      30      36      39      42      18      30      78      72      75       4
      27      21      72      75       4      27      30      78      81      29
      27      30     -78      81      30      27      30      78      84      29
      27      30     -78      84      30      24      21      27      30       8
      24      21      72      75       4      24      21      72      78       4
      24      21      72      87       4      21      27      30      33       8
      21      72      78      81       4      21      72      78      84       4
      18      12      21      24       4      18      12      21      27      29
      18      12      21      72      35      15      12      21      24       4
      15      12      21      27      29      15      12      21      72      35
      12      21      72      75       4       9      12      21      24      29
       0       9      12      15       8       0       9      12      18       8
     183     177     171     186       4     180     177     171     186       4
     174     171     177     180       4     174     171     177     183       4
     174     171     186     189       8     162     156     153     165      14
     159     156     153     165      14     150     147     153     156      39
     150     147     153     165      39     147     153     156     159      14
     147     153     156     162      14     144     141     147     150      41
     138     141     147     150      41     132     129     126     168      44
     132     129     135     138      45     126     120     177     180       4
     126     120     177     183       4     123     120     126     129      13
     123     120     126     168      13     123     120     177     171       4
     123     120     177     180       4     123     120     177     183       4
     120     126     129     132      44     120     177     171     174       4
     117     111     171     174       4     117     120     177     180      29
     117     120    -177     180      30     117     120     177     183      29
     117     120    -177     183      30     114     111     117     120       8
     114     111     171     174       4     114     111     171     177       4
     114     111     171     186       4     111     117     120     123       8
     111     171     177     180       4     111     171     177     183       4
     108     102     111     114       4     108     102     111     117      29
     108     102     111     171      35     105     102     111     114       4
     105     102     111     117      29     105     102     111     171      35
     102     111     171     174       4      99     102     111     114      29
      90      99     102     105       8      90      99     102     108       8
     273     267     261     276       4     270     267     261     276       4
     264     261     267     270       4     264     261     267     273       4
     264     261     276     279       8     249     243     240     252      14
     246     243     240     252      14     237     234     240     243      17
     237     234     240     252      17     234     240     243     246      14
     234     240     243     249      14     231     228     225     255      18
     231     228     234     237      19     231     228     234     240      19
     225     219     267     270       4     225     219     267     273       4
     225     228     234     237      19     222     219     225     228      13
     222     219     225     255      13     222     219     267     261       4
     222     219     267     270       4     222     219     267     273       4
     219     225     228     231      18     219     267     261     264       4
     216     210     261     264       4     216     219     267     270      29
     216     219    -267     270      30     216     219     267     273      29
     216     219    -267     273      30     213     210     216     219       8
     213     210     261     264       4     213     210     261     267       4
     213     210     261     276       4     210     216     219     222       8
     210     261     267     270       4     210     261     267     273       4
     207     201     210     213       4     207     201     210     216      29
     207     201     210     261      35     204     201     210     213       4
     204     201     210     216      29     204     201     210     261      35
     201     210     261     264       4     198     201     210     213      29
     189     198     201     204       8     189     198     201     207       8
     372     366     360     375       4     369     366     360     375       4
     363     360     366     369       4     363     360     366     372       4
     363     360     375     378       8     351     345     342     354      14
     348     345     342     354      14     339     336     342     345      39
     339     336     342     354      39     336     342     345     348      14
     336     342     345     351      14     333     330     336     339      41
     327     330     336     339      41     321     318     315     357      44
     321     318     324     327      45     315     309     366     369       4
     315     309     366     372       4     312     309     315     318      13
     312     309     315     357      13     312     309     366     360       4
     312     309     366     369       4     312     309     366     372       4
     309     315     318     321      44     309     366     360     363       4
     306     300     360     363       4     306     309     366     369      29
     306     309    -366     369      30     306     309     366     372      29
     306     309    -366     372      30     303     300     306     309       8
     303     300     360     363       4     303     300     360     366       4
     303     300     360     375       4     300     306     309     312       8
     300     360     366     369       4     300     360     366     372       4
     297     291     300     303       4     297     291     300     306      29
     297     291     300     360      35     294     291     300     303       4
     294     291     300     306      29     294     291     300     360      35
     291     300     360     363       4     288     291     300     303      29
     279     288     291     294       8     279     288     291     297       8
     468     462     456     471       4     465     462     456     471       4
     459     456     462     465       4     459     456     462     468       4
     459     456     471     474       8     447     444     450     453      50
     438     432     429     441      14     435     432     429     441      14
     429     441     444     447      50     426     429     432     435      14
     426     429     432     438      14     420     417     414     453      44
     420     417     423     426      45     414     408     462     465       4
     414     408     462     468       4     411     408     414     417      13
     411     408     414     453      13     411     408     462     456       4
     411     408     462     465       4     411     408     462     468       4
     408     414     417     420      44     408     462     456     459       4
     405     399     456     459       4     405     408     462     465      29
     405     408    -462     465      30     405     408     462     468      29
     405     408    -462     468      30     402     399     405     408       8
     402     399     456     459       4     402     399     456     462       4
     402     399     456     471       4     399     405     408     411       8
     399     456     462     465       4     399     456     462     468       4
     396     390     399     402       4     396     390     399     405      29
     396     390     399     456      35     393     390     399     402       4
     393     390     399     405      29     393     390     399     456      35
     390     399     456     459       4     387     390     399     402      29
     378     387     390     393       8     378     387     390     396       8
     564     558     552     567       4     561     558     552     567       4
     555     552     558     561       4     555     552     558     564       4
     555     552     567     570       8     543     540     546     549      50
     534     528     525     537      14     531     528     525     537      14
     525     537     540     543      50     522     525     528     531      14
     522     525     528     534      14     516     513     510     549      44
     516     513     519     522      45     510     504     558     561       4
     510     504     558     564       4     507     504     510     513      13
     507     504     510     549      13     507     504     558     552       4
     507     504     558     561       4     507     504     558     564       4
     504     510     513     516      44     504     558     552     555       4
     501     495     552     555       4     501     504     558     561      29
     501     504    -558     561      30     501     504     558     564      29
     501     504    -558     564      30     498     495     501     504       8
     498     495     552     555       4     498     495     552     558       4
     498     495     552     567       4     495     501     504     507       8
     495     552     558     561       4     495     552     558     564       4
     492     486     495     498       4     492     486     495     501      29
     492     486     495     552      35     489     486     495     498       4
     489     486     495     501      29     489     486     495     552      35
     486     495     552     555       4     483     486     495     498      29
     474     483     486     489       8     474     483     486     492       8
     660     654     648     663       4     657     654     648     663       4
     651     648     654     657       4     651     648     654     660       4
     651     648     663     666       8     639     636     642     645      41
     633     630     636     639      41     627     618     615     630      30
     624     618     615     630      30     621     618     615     630      30
     615     630     636     639      41     612     609     606     642      18
     612     609     615     618      19     612     609     615     630      19
     609     615     618     621      56     609     615    -618     621      57
     609     615     618     624      56     609     615    -618     624      57
     609     615     618     627      56     609     615    -618     627      57
     606     600     654     657       4     606     600     654     660       4
     606     642     636     639      41     603     600     606     609      13
     603     600     606     642      13     603     600     654     648       4
     603     600     654     657       4     603     600     654     660       4
     600     606     609     612      18     600     654     648     651       4
     597     591     648     651       4     597     600     654     657      29
     597     600    -654     657      30     597     600     654     660      29
     597     600    -654     660      30     594     591     597     600       8
     594     591     648     651       4     594     591     648     654       4
     594     591     648     663       4     591     597     600     603       8
     591     648     654     657       4     591     648     654     660       4
     588     582     591     594       4     588     582     591     597      29
     588     582     591     648      35     585     582     591     594       4
     585     582     591     597      29     585     582     591     648      35
     582     591     648     651       4     579     582     591     594      29
     570     579     582     585       8     570     579     582     588       8
     756     750     744     759       4     753     750     744     759       4
     747     744     750     753       4     747     744     750     756       4
     747     744     759     762       8     735     732     738     741      41
     729     726     732     735      41     723     714     711     726      30
     720     714     711     726      30     717     714     711     726      30
     711     726     732     735      41     708     705     702     738      18
     708     705     711     714      19     708     705     711     726      19
     705     711     714     717      56     705     711    -714     717      57
     705     711     714     720      56     705     711    -714     720      57
     705     711     714     723      56     705     711    -714     723      57
     702     696     750     753       4     702     696     750     756       4
     702     738     732     735      41     699     696     702     705      13
     699     696     702     738      13     699     696     750     744       4
     699     696     750     753       4     699     696     750     756       4
     696     702     705     708      18     696     750     744     747       4
     693     687     744     747       4     693     696     750     753      29
     693     696    -750     753      30     693     696     750     756      29
     693     696    -750     756      30     690     687     693     696       8
     690     687     744     747       4     690     687     744     750       4
     690     687     744     759       4     687     693     696     699       8
     687     744     750     753       4     687     744     750     756       4
     684     678     687     690       4     684     678     687     693      29
     684     678     687     744      35     681     678     687     690       4
     681     678     687     693      29     681     678     687     744      35
     678     687     744     747       4     675     678     687     690      29
     666     675     678     681       8     666     675     678     684       8
     846     840     834     849       4     843     840     834     849       4
     837     834     840     843       4     837     834     840     846       4
     837     834     849     852       8     822     816     813     825      14
     819     816     813     825      14     810     807     813     816      17
     810     807     813     825      17     807     813     816     819      14
     807     813     816     822      14     804     801     798     828      18
     804     801     807     810      19     804     801     807     813      19
     798     792     840     843       4     798     792     840     846       4
     798     801     807     810      19     795     792     798     801      13
     795     792     798     828      13     795     792     840     834       4
     795     792     840     843       4     795     792     840     846       4
     792     798     801     804      18     792     840     834     837       4
     789     783     834     837       4     789     792     840     843      29
     789     792    -840     843      30     789     792     840     846      29
     789     792    -840     846      30     786     783     789     792       8
     786     783     834     837       4     786     783     834     840       4
     786     783     834     849       4     783     789     792     795       8
     783     834     840     843       4     783     834     840     846       4
     780     774     783     786       4     780     774     783     789      29
     780     774     783     834      35     777     774     783     786       4
     777     774     783     789      29     777     774     783     834      35
     774     783     834     837       4     771     774     783     786      29
     762     771     774     777       8     762     771     774     780       8
     945     939     933     948       4     942     939     933     948       4
     936     933     939     942       4     936     933     939     945       4
     936     933     948     951       8     924     918     915     927      14
     921     918     915     927      14     912     909     915     918      39
     912     909     915     927      39     909     915     918     921      14
     909     915     918     924      14     906     903     909     912      41
     900     903     909     912      41     894     891     888     930      44
     894     891     897     900      45     888     882     939     942       4
     888     882     939     945       4     885     882     888     891      13
     885     882     888     930      13     885     882     939     933       4
     885     882     939     942       4     885     882     939     945       4
     882     888     891     894      44     882     939     933     936       4
     879     873     933     936       4     879     882     939     942      29
     879     882    -939     942      30     879     882     939     945      29
     879     882    -939     945      30     876     873     879     882       8
     876     873     933     936       4     876     873     933     939       4
     876     873     933     948       4     873     879     882     885       8
     873     933     939     942       4     873     933     939     945       4
     870     864     873     876       4     870     864     873     879      29
     870     864     873     933      35     867     864     873     876       4
     867     864     873     879      29     867     864     873     933      35
     864     873     933     936       4     861     864     873     876      29
     852     861     864     867       8     852     861     864     870       8
    1035    1029    1023    1038       4    1032    1029    1023    1038       4
    1026    1023    1029    1032       4    1026    1023    1029    1035       4
    1026    1023    1038    1041       8    1011    1005    1002    1014      14
    1008    1005    1002    1014      14     999     996    1002    1005      17
     999     996    1002    1014      17     996    1002    1005    1008      14
     996    1002    1005    1011      14     993     990     987    1017      18
     993     990     996     999      19     993     990     996    1002      19
     987     981    1029    1032       4     987     981    1029    1035       4
     987     990     996     999      19     984     981     987     990      13
     984     981     987    1017      13     984     981    1029    1023       4
     984     981    1029    1032       4     984     981    1029    1035       4
     981     987     990     993      18     981    1029    1023    1026       4
     978     972    1023    1026       4     978     981    1029    1032      29
     978     981   -1029    1032      30     978     981    1029    1035      29
     978     981   -1029    1035      30     975     972     978     981       8
     975     972    1023    1026       4     975     972    1023    1029       4
     975     972    1023    1038       4     972     978     981     984       8
     972    1023    1029    1032       4     972    1023    1029    1035       4
     969     963     972     975       4     969     963     972     978      29
     969     963     972    1023      35     966     963     972     975       4
     966     963     972     978      29     966     963     972    1023      35
     963     972    1023    1026       4     960     963     972     975      29
     951     960     963     966       8     951     960     963     969       8
    1134    1128    1122    1137       4    1131    1128    1122    1137       4
    1125    1122    1128    1131       4    1125    1122    1128    1134       4
    1113    1107    1104    1116      14    1110    1107    1104    1116      14
    1101    1098    1104    1107      39    1101    1098    1104    1116      39
    1098    1104    1107    1110      14    1098    1104    1107    1113      14
    1095    1092    1098    1101      41    1089    1092    1098    1101      41
    1083    1080    1077    1119      44    1083    1080    1086    1089      45
    1077    1071    1128    1131       4    1077    1071    1128    1134       4
    1074    1071    1077    1080      13    1074    1071    1077    1119      13
    1074    1071    1128    1122       4    1074    1071    1128    1131       4
    1074    1071    1128    1134       4    1071    1077    1080    1083      44
    1071    1128    1122    1125       4    1068    1062    1122    1125       4
    1068    1071    1128    1131      29    1068    1071   -1128    1131      30
    1068    1071    1128    1134      29    1068    1071   -1128    1134      30
    1065    1062    1068    1071       8    1065    1062    1122    1125       4
    1065    1062    1122    1128       4    1065    1062    1122    1137       4
    1062    1068    1071    1074       8    1062    1122    1128    1131       4
    1062    1122    1128    1134       4    1059    1053    1062    1065       4
    1059    1053    1062    1068      29    1059    1053    1062    1122      35
    1056    1053    1062    1065       4    1056    1053    1062    1068      29
    1056    1053    1062    1122      35    1053    1062    1122    1125       4
    1050    1053    1062    1065      29    1041    1050    1053    1056       8
    1041    1050    1053    1059       8    1224    1218    1212    1227       4
    1221    1218    1212    1227       4    1215    1212    1218    1221       4
    1215    1212    1218    1224       4    1215    1212    1227    1230       8
    1200    1194    1191    1203      14    1197    1194    1191    1203      14
    1188    1185    1191    1194      17    1188    1185    1191    1203      17
    1185    1191    1194    1197      14    1185    1191    1194    1200      14
    1182    1179    1176    1206      18    1182    1179    1185    1188      19
    1182    1179    1185    1191      19    1176    1170    1218    1221       4
    1176    1170    1218    1224       4    1176    1179    1185    1188      19
    1173    1170    1176    1179      13    1173    1170    1176    1206      13
    1173    1170    1218    1212       4    1173    1170    1218    1221       4
    1173    1170    1218    1224       4    1170    1176    1179    1182      18
    1170    1218    1212    1215       4    1167    1161    1212    1215       4
    1167    1170    1218    1221      29    1167    1170   -1218    1221      30
    1167    1170    1218    1224      29    1167    1170   -1218    1224      30
    1164    1161    1167    1170       8    1164    1161    1212    1215       4
    1164    1161    1212    1218       4    1164    1161    1212    1227       4
    1161    1167    1170    1173       8    1161    1212    1218    1221       4
    1161    1212    1218    1224       4    1158    1152    1161    1164       4
    1158    1152    1161    1167      29    1158    1152    1161    1212      35
    1155    1152    1161    1164       4    1155    1152    1161    1167      29
    1155    1152    1161    1212      35    1152    1161    1212    1215       4
    1149    1152    1161    1164      29    1140    1149    1152    1155       8
    1140    1149    1152    1158       8    1323    1317    1311    1326       4
    1320    1317    1311    1326       4    1314    1311    1317    1320       4
    1314    1311    1317    1323       4    1314    1311    1326    1329       8
    1302    1296    1293    1305      14    1299    1296    1293    1305      14
    1290    1287    1293    1296      39    1290    1287    1293    1305      39
    1287    1293    1296    1299      14    1287    1293    1296    1302      14
    1284    1281    1287    1290      41    1278    1281    1287    1290      41
    1272    1269    1266    1308      44    1272    1269    1275    1278      45
    1266    1260    1317    1320       4    1266    1260    1317    1323       4
    1263    1260    1266    1269      13    1263    1260    1266    1308      13
    1263    1260    1317    1311       4    1263    1260    1317    1320       4
    1263    1260    1317    1323       4    1260    1266    1269    1272      44
    1260    1317    1311    1314       4    1257    1251    1311    1314       4
    1257    1260    1317    1320      29    1257    1260   -1317    1320      30
    1257    1260    1317    1323      29    1257    1260   -1317    1323      30
    1254    1251    1257    1260       8    1254    1251    1311    1314       4
    1254    1251    1311    1317       4    1254    1251    1311    1326       4
    1251    1257    1260    1263       8    1251    1311    1317    1320       4
    1251    1311    1317    1323       4    1248    1242    1251    1254       4
    1248    1242    1251    1257      29    1248    1242    1251    1311      35
    1245    1242    1251    1254       4    1245    1242    1251    1257      29
    1245    1242    1251    1311      35    1242    1251    1311    1314       4
    1239    1242    1251    1254      29    1230    1239    1242    1245       8
    1230    1239    1242    1248       8    1413    1407    1401    1416       4
    1410    1407    1401    1416       4    1404    1401    1407    1410       4
    1404    1401    1407    1413       4    1404    1401    1416    1419       8
    1389    1383    1380    1392      14    1386    1383    1380    1392      14
    1377    1374    1380    1383      17    1377    1374    1380    1392      17
    1374    1380    1383    1386      14    1374    1380    1383    1389      14
    1371    1368    1365    1395      18    1371    1368    1374    1377      19
    1371    1368    1374    1380      19    1365    1359    1407    1410       4
    1365    1359    1407    1413       4    1365    1368    1374    1377      19
    1362    1359    1365    1368      13    1362    1359    1365    1395      13
    1362    1359    1407    1401       4    1362    1359    1407    1410       4
    1362    1359    1407    1413       4    1359    1365    1368    1371      18
    1359    1407    1401    1404       4    1356    1350    1401    1404       4
    1356    1359    1407    1410      29    1356    1359   -1407    1410      30
    1356    1359    1407    1413      29    1356    1359   -1407    1413      30
    1353    1350    1356    1359       8    1353    1350    1401    1404       4
    1353    1350    1401    1407       4    1353    1350    1401    1416       4
    1350    1356    1359    1362       8    1350    1401    1407    1410       4
    1350    1401    1407    1413       4    1347    1341    1350    1353       4
    1347    1341    1350    1356      29    1347    1341    1350    1401      35
    1344    1341    1350    1353       4    1344    1341    1350    1356      29
    1344    1341    1350    1401      35    1341    1350    1401    1404       4
    1338    1341    1350    1353      29    1329    1338    1341    1344       8
    1329    1338    1341    1347       8    1512    1506    1500    1515       4
    1509    1506    1500    1515       4    1503    1500    1506    1509       4
    1503    1500    1506    1512       4    1503    1500    1515    1518       8
    1491    1485    1482    1494      14    1488    1485    1482    1494      14
    1479    1476    1482    1485      39    1479    1476    1482    1494      39
    1476    1482    1485    1488      14    1476    1482    1485    1491      14
    1473    1470    1476    1479      41    1467    1470    1476    1479      41
    1461    1458    1455    1497      44    1461    1458    1464    1467      45
    1455    1449    1506    1509       4    1455    1449    1506    1512       4
    1452    1449    1455    1458      13    1452    1449    1455    1497      13
    1452    1449    1506    1500       4    1452    1449    1506    1509       4
    1452    1449    1506    1512       4    1449    1455    1458    1461      44
    1449    1506    1500    1503       4    1446    1440    1500    1503       4
    1446    1449    1506    1509      29    1446    1449   -1506    1509      30
    1446    1449    1506    1512      29    1446    1449   -1506    1512      30
    1443    1440    1446    1449       8    1443    1440    1500    1503       4
    1443    1440    1500    1506       4    1443    1440    1500    1515       4
    1440    1446    1449    1452       8    1440    1500    1506    1509       4
    1440    1500    1506    1512       4    1437    1431    1440    1443       4
    1437    1431    1440    1446      29    1437    1431    1440    1500      35
    1434    1431    1440    1443       4    1434    1431    1440    1446      29
    1434    1431    1440    1500      35    1431    1440    1500    1503       4
    1428    1431    1440    1443      29    1419    1428    1431    1434       8
    1419    1428    1431    1437       8    1608    1602    1596    1611       4
    1605    1602    1596    1611       4    1599    1596    1602    1605       4
    1599    1596    1602    1608       4    1599    1596    1611    1614       8
    1587    1584    1590    1593      50    1578    1572    1569    1581      14
    1575    1572    1569    1581      14    1569    1581    1584    1587      50
    1566    1569    1572    1575      14    1566    1569    1572    1578      14
    1560    1557    1554    1593      44    1560    1557    1563    1566      45
    1554    1548    1602    1605       4    1554    1548    1602    1608       4
    1551    1548    1554    1557      13    1551    1548    1554    1593      13
    1551    1548    1602    1596       4    1551    1548    1602    1605       4
    1551    1548    1602    1608       4    1548    1554    1557    1560      44
    1548    1602    1596    1599       4    1545    1539    1596    1599       4
    1545    1548    1602    1605      29    1545    1548   -1602    1605      30
    1545    1548    1602    1608      29    1545    1548   -1602    1608      30
    1542    1539    1545    1548       8    1542    1539    1596    1599       4
    1542    1539    1596    1602       4    1542    1539    1596    1611       4
    1539    1545    1548    1551       8    1539    1596    1602    1605       4
    1539    1596    1602    1608       4    1536    1530    1539    1542       4
    1536    1530    1539    1545      29    1536    1530    1539    1596      35
    1533    1530    1539    1542       4    1533    1530    1539    1545      29
    1533    1530    1539    1596      35    1530    1539    1596    1599       4
    1527    1530    1539    1542      29    1518    1527    1530    1533       8
    1518    1527    1530    1536       8    1704    1698    1692    1707       4
    1701    1698    1692    1707       4    1695    1692    1698    1701       4
    1695    1692    1698    1704       4    1695    1692    1707    1710       8
    1683    1680    1686    1689      50    1674    1668    1665    1677      14
    1671    1668    1665    1677      14    1665    1677    1680    1683      50
    1662    1665    1668    1671      14    1662    1665    1668    1674      14
    1656    1653    1650    1689      44    1656    1653    1659    1662      45
    1650    1644    1698    1701       4    1650    1644    1698    1704       4
    1647    1644    1650    1653      13    1647    1644    1650    1689      13
    1647    1644    1698    1692       4    1647    1644    1698    1701       4
    1647    1644    1698    1704       4    1644    1650    1653    1656      44
    1644    1698    1692    1695       4    1641    1635    1692    1695       4
    1641    1644    1698    1701      29    1641    1644   -1698    1701      30
    1641    1644    1698    1704      29    1641    1644   -1698    1704      30
    1638    1635    1641    1644       8    1638    1635    1692    1695       4
    1638    1635    1692    1698       4    1638    1635    1692    1707       4
    1635    1641    1644    1647       8    1635    1692    1698    1701       4
    1635    1692    1698    1704       4    1632    1626    1635    1638       4
    1632    1626    1635    1641      29    1632    1626    1635    1692      35
    1629    1626    1635    1638       4    1629    1626    1635    1641      29
    1629    1626    1635    1692      35    1626    1635    1692    1695       4
    1623    1626    1635    1638      29    1614    1623    1626    1629       8
    1614    1623    1626    1632       8    1800    1794    1788    1803       4
    1797    1794    1788    1803       4    1791    1788    1794    1797       4
    1791    1788    1794    1800       4    1791    1788    1803    1806       8
    1779    1776    1782    1785      41    1773    1770    1776    1779      41
    1767    1758    1755    1770      30    1764    1758    1755    1770      30
    1761    1758    1755    1770      30    1755    1770    1776    1779      41
    1752    1749    1746    1782      18    1752    1749    1755    1758      19
    1752    1749    1755    1770      19    1749    1755    1758    1761      56
    1749    1755   -1758    1761      57    1749    1755    1758    1764      56
    1749    1755   -1758    1764      57    1749    1755    1758    1767      56
    1749    1755   -1758    1767      57    1746    1740    1794    1797       4
    1746    1740    1794    1800       4    1746    1782    1776    1779      41
    1743    1740    1746    1749      13    1743    1740    1746    1782      13
    1743    1740    1794    1788       4    1743    1740    1794    1797       4
    1743    1740    1794    1800       4    1740    1746    1749    1752      18
    1740    1794    1788    1791       4    1737    1731    1788    1791       4
    1737    1740    1794    1797      29    1737    1740   -1794    1797      30
    1737    1740    1794    1800      29    1737    1740   -1794    1800      30
    1734    1731    1737    1740       8    1734    1731    1788    1791       4
    1734    1731    1788    1794       4    1734    1731    1788    1803       4
    1731    1737    1740    1743       8    1731    1788    1794    1797       4
    1731    1788    1794    1800       4    1728    1722    1731    1734       4
    1728    1722    1731    1737      29    1728    1722    1731    1788      35
    1725    1722    1731    1734       4    1725    1722    1731    1737      29
    1725    1722    1731    1788      35    1722    1731    1788    1791       4
    1719    1722    1731    1734      29    1710    1719    1722    1725       8
    1710    1719    1722    1728       8    1896    1890    1884    1899       4
    1893    1890    1884    1899       4    1887    1884    1890    1893       4
    1887    1884    1890    1896       4    1887    1884    1899    1902       8
    1875    1872    1878    1881      41    1869    1866    1872    1875      41
    1863    1854    1851    1866      30    1860    1854    1851    1866      30
    1857    1854    1851    1866      30    1851    1866    1872    1875      41
    1848    1845    1842    1878      18    1848    1845    1851    1854      19
    1848    1845    1851    1866      19    1845    1851    1854    1857      56
    1845    1851   -1854    1857      57    1845    1851    1854    1860      56
    1845    1851   -1854    1860      57    1845    1851    1854    1863      56
    1845    1851   -1854    1863      57    1842    1836    1890    1893       4
    1842    1836    1890    1896       4    1842    1878    1872    1875      41
    1839    1836    1842    1845      13    1839    1836    1842    1878      13
    1839    1836    1890    1884       4    1839    1836    1890    1893       4
    1839    1836    1890    1896       4    1836    1842    1845    1848      18
    1836    1890    1884    1887       4    1833    1827    1884    1887       4
    1833    1836    1890    1893      29    1833    1836   -1890    1893      30
    1833    1836    1890    1896      29    1833    1836   -1890    1896      30
    1830    1827    1833    1836       8    1830    1827    1884    1887       4
    1830    1827    1884    1890       4    1830    1827    1884    1899       4
    1827    1833    1836    1839       8    1827    1884    1890    1893       4
    1827    1884    1890    1896       4    1824    1818    1827    1830       4
    1824    1818    1827    1833      29    1824    1818    1827    1884      35
    1821    1818    1827    1830       4    1821    1818    1827    1833      29
    1821    1818    1827    1884      35    1818    1827    1884    1887       4
    1815    1818    1827    1830      29    1806    1815    1818    1821       8
    1806    1815    1818    1824       8    1986    1980    1974    1989       4
    1983    1980    1974    1989       4    1977    1974    1980    1983       4
    1977    1974    1980    1986       4    1977    1974    1989    1992       8
    1962    1956    1953    1965      14    1959    1956    1953    1965      14
    1950    1947    1953    1956      17    1950    1947    1953    1965      17
    1947    1953    1956    1959      14    1947    1953    1956    1962      14
    1944    1941    1938    1968      18    1944    1941    1947    1950      19
    1944    1941    1947    1953      19    1938    1932    1980    1983       4
    1938    1932    1980    1986       4    1938    1941    1947    1950      19
    1935    1932    1938    1941      13    1935    1932    1938    1968      13
    1935    1932    1980    1974       4    1935    1932    1980    1983       4
    1935    1932    1980    1986       4    1932    1938    1941    1944      18
    1932    1980    1974    1977       4    1929    1923    1974    1977       4
    1929    1932    1980    1983      29    1929    1932   -1980    1983      30
    1929    1932    1980    1986      29    1929    1932   -1980    1986      30
    1926    1923    1929    1932       8    1926    1923    1974    1977       4
    1926    1923    1974    1980       4    1926    1923    1974    1989       4
    1923    1929    1932    1935       8    1923    1974    1980    1983       4
    1923    1974    1980    1986       4    1920    1914    1923    1926       4
    1920    1914    1923    1929      29    1920    1914    1923    1974      35
    1917    1914    1923    1926       4    1917    1914    1923    1929      29
    1917    1914    1923    1974      35    1914    1923    1974    1977       4
    1911    1914    1923    1926      29    1902    1911    1914    1917       8
    1902    1911    1914    1920       8    2085    2079    2073    2088       4
    2082    2079    2073    2088       4    2076    2073    2079    2082       4
    2076    2073    2079    2085       4    2076    2073    2088    2091       8
    2064    2058    2055    2067      14    2061    2058    2055    2067      14
    2052    2049    2055    2058      39    2052    2049    2055    2067      39
    2049    2055    2058    2061      14    2049    2055    2058    2064      14
    2046    2043    2049    2052      41    2040    2043    2049    2052      41
    2034    2031    2028    2070      44    2034    2031    2037    2040      45
    2028    2022    2079    2082       4    2028    2022    2079    2085       4
    2025    2022    2028    2031      13    2025    2022    2028    2070      13
    2025    2022    2079    2073       4    2025    2022    2079    2082       4
    2025    2022    2079    2085       4    2022    2028    2031    2034      44
    2022    2079    2073    2076       4    2019    2013    2073    2076       4
    2019    2022    2079    2082      29    2019    2022   -2079    2082      30
    2019    2022    2079    2085      29    2019    2022   -2079    2085      30
    2016    2013    2019    2022       8    2016    2013    2073    2076       4
    2016    2013    2073    2079       4    2016    2013    2073    2088       4
    2013    2019    2022    2025       8    2013    2073    2079    2082       4
    2013    2073    2079    2085       4    2010    2004    2013    2016       4
    2010    2004    2013    2019      29    2010    2004    2013    2073      35
    2007    2004    2013    2016       4    2007    2004    2013    2019      29
    2007    2004    2013    2073      35    2004    2013    2073    2076       4
    2001    2004    2013    2016      29    1992    2001    2004    2007       8
    1992    2001    2004    2010       8    2175    2169    2163    2178       4
    2172    2169    2163    2178       4    2166    2163    2169    2172       4
    2166    2163    2169    2175       4    2166    2163    2178    2181       8
    2151    2145    2142    2154      14    2148    2145    2142    2154      14
    2139    2136    2142    2145      17    2139    2136    2142    2154      17
    2136    2142    2145    2148      14    2136    2142    2145    2151      14
    2133    2130    2127    2157      18    2133    2130    2136    2139      19
    2133    2130    2136    2142      19    2127    2121    2169    2172       4
    2127    2121    2169    2175       4    2127    2130    2136    2139      19
    2124    2121    2127    2130      13    2124    2121    2127    2157      13
    2124    2121    2169    2163       4    2124    2121    2169    2172       4
    2124    2121    2169    2175       4    2121    2127    2130    2133      18
    2121    2169    2163    2166       4    2118    2112    2163    2166       4
    2118    2121    2169    2172      29    2118    2121   -2169    2172      30
    2118    2121    2169    2175      29    2118    2121   -2169    2175      30
    2115    2112    2118    2121       8    2115    2112    2163    2166       4
    2115    2112    2163    2169       4    2115    2112    2163    2178       4
    2112    2118    2121    2124       8    2112    2163    2169    2172       4
    2112    2163    2169    2175       4    2109    2103    2112    2115       4
    2109    2103    2112    2118      29    2109    2103    2112    2163      35
    2106    2103    2112    2115       4    2106    2103    2112    2118      29
    2106    2103    2112    2163      35    2103    2112    2163    2166       4
    2100    2103    2112    2115      29    2091    2100    2103    2106       8
    2091    2100    2103    2109       8    2274    2268    2262    2277       4
    2271    2268    2262    2277       4    2265    2262    2268    2271       4
    2265    2262    2268    2274       4    2253    2247    2244    2256      14
    2250    2247    2244    2256      14    2241    2238    2244    2247      39
    2241    2238    2244    2256      39    2238    2244    2247    2250      14
    2238    2244    2247    2253      14    2235    2232    2238    2241      41
    2229    2232    2238    2241      41    2223    2220    2217    2259      44
    2223    2220    2226    2229      45    2217    2211    2268    2271       4
    2217    2211    2268    2274       4    2214    2211    2217    2220      13
    2214    2211    2217    2259      13    2214    2211    2268    2262       4
    2214    2211    2268    2271       4    2214    2211    2268    2274       4
    2211    2217    2220    2223      44    2211    2268    2262    2265       4
    2208    2202    2262    2265       4    2208    2211    2268    2271      29
    2208    2211   -2268    2271      30    2208    2211    2268    2274      29
    2208    2211   -2268    2274      30    2205    2202    2208    2211       8
    2205    2202    2262    2265       4    2205    2202    2262    2268       4
    2205    2202    2262    2277       4    2202    2208    2211    2214       8
    2202    2262    2268    2271       4    2202    2262    2268    2274       4
    2199    2193    2202    2205       4    2199    2193    2202    2208      29
    2199    2193    2202    2262      35    2196    2193    2202    2205       4
    2196    2193    2202    2208      29    2196    2193    2202    2262      35
    2193    2202    2262    2265       4    2190    2193    2202    2205      29
    2181    2190    2193    2196       8    2181    2190    2193    2199       8
      51      57     -54     -60      63      39      51     -45     -48      64
      36      45     -39     -42      64     153     159    -156    -162      63
     141     153    -147    -150      63     126     135    -129    -132      64
     240     246    -243    -249      63     228     240    -234    -237      64
     225     234    -228    -231      64     342     348    -345    -351      63
     330     342    -336    -339      63     315     324    -318    -321      64
     441     450    -444    -447      64     429     435    -432    -438      63
     414     423    -417    -420      64     537     546    -540    -543      64
     525     531    -528    -534      63     510     519    -513    -516      64
     630     642    -636    -639      63     606     615    -609    -612      64
     726     738    -732    -735      63     702     711    -705    -708      64
     813     819    -816    -822      63     801     813    -807    -810      64
     798     807    -801    -804      64     915     921    -918    -924      63
     903     915    -909    -912      63     888     897    -891    -894      64
    1002    1008   -1005   -1011      63     990    1002    -996    -999      64
     987     996    -990    -993      64    1104    1110   -1107   -1113      63
    1092    1104   -1098   -1101      63    1077    1086   -1080   -1083      64
    1191    1197   -1194   -1200      63    1179    1191   -1185   -1188      64
    1176    1185   -1179   -1182      64    1293    1299   -1296   -1302      63
    1281    1293   -1287   -1290      63    1266    1275   -1269   -1272      64
    1380    1386   -1383   -1389      63    1368    1380   -1374   -1377      64
    1365    1374   -1368   -1371      64    1482    1488   -1485   -1491      63
    1470    1482   -1476   -1479      63    1455    1464   -1458   -1461      64
    1581    1590   -1584   -1587      64    1569    1575   -1572   -1578      63
    1554    1563   -1557   -1560      64    1677    1686   -1680   -1683      64
    1665    1671   -1668   -1674      63    1650    1659   -1653   -1656      64
    1770    1782   -1776   -1779      63    1746    1755   -1749   -1752      64
    1866    1878   -1872   -1875      63    1842    1851   -1845   -1848      64
    1953    1959   -1956   -1962      63    1941    1953   -1947   -1950      64
    1938    1947   -1941   -1944      64    2055    2061   -2058   -2064      63
    2043    2055   -2049   -2052      63    2028    2037   -2031   -2034      64
    2142    2148   -2145   -2151      63    2130    2142   -2136   -2139      64
    2127    2136   -2130   -2133      64    2244    2250   -2247   -2253      63
    2232    2244   -2238   -2241      63    2217    2226   -2220   -2223      64
%FLAG DIHEDRALS_WITHOUT_HYDROGEN                                                
%FORMAT(10I8)                                                                   
      87      90      99     102       1      87      90     -99     102       2
      87      90     -99     102       3      78      72      87      90       5
      78      72     -87      90       6      78      72     -87      90       7
      72      87      90      93       9      72      87      90      96       9
      72      87      90      99      10      72      87     -90      99      11
      72      87     -90      99      12      66      36      30      78      13
      54      51      63      66      15      51      63      66      69      16
      45      39      36      66      18      45      51     -63      66      15
      39      36      30      78      13      39      36      66      63      20
      39      36      66      69      20      39      45      51      54      17
      39      45     -51      63      17      36      30      78      72       4
      36      39      45      51      19      36      66     -63      51      16
      30      27     -21      72      21      30      27     -21      72      22
      30      36      39      45      18      30      36      66      63      20
      30      36      66      69      20      30      78      72      87       4
      27      21     -72      78      23      27      21      72      87      24
      27      21     -72      87      25      27      30      36      39      26
      27      30     -36      39      27      27      30     -36      39      28
      27      30      36      66      13      27      30     -78      72       4
      21      27      30      36      31      21      27     -30      36      32
      21      27     -30      78      21      21      27     -30      78      32
      21      72     -78      30      33      21      72     -78      30      34
      21      72      87      90       5      21      72     -87      90       6
      21      72     -87      90       7      12      21      27      30      21
      12      21     -27      30      32      12      21      72      78       4
      12      21      72      87       4       9      12      21      27       4
       9      12      21      72      36       9      12     -21      72      37
       9      12     -21      72      38       6       0       9      12       9
       3       0       9      12       9       0       9      12      21       8
     186     189     198     201       1     186     189    -198     201       2
     186     189    -198     201       3     177     171     186     189       5
     177     171    -186     189       6     177     171    -186     189       7
     171     186     189     192       9     171     186     189     195       9
     171     186     189     198      10     171     186    -189     198      11
     171     186    -189     198      12     168     126     120     177      13
     156     153     165     168      15     147     141     138     168      40
     147     153    -165     168      15     144     141     138     168      40
     144     141     147     153      41     141     138     168     165      42
     141     147     153     156      39     141     147    -153     165      39
     138     141     147     153      41     138     168    -165     153      43
     135     129    -126     168      44     135     138     141     144      40
     135     138     141     147      40     135     138     168     165      42
     129     126     120     177      13     129     126    -168     138      46
     129     126     168     165      46     129     135     138     141      17
     129     135    -138     168      17     126     120     177     171       4
     126     129    -135     138      45     126     168    -138     135      42
     126     168     138     141      42     126     168     165     153      43
     120     117    -111     171      21     120     117    -111     171      22
     120     126     129     135      44     120     126     168     138      46
     120     126     168     165      46     120     177     171     186       4
     117     111    -171     177      23     117     111     171     186      24
     117     111    -171     186      25     117     120     126     129      47
     117     120    -126     129      48     117     120    -126     129      49
     117     120     126     168      13     117     120    -177     171       4
     111     117     120     126      31     111     117    -120     126      32
     111     117    -120     177      21     111     117    -120     177      32
     111     171    -177     120      33     111     171    -177     120      34
     111     171     186     189       5     111     171    -186     189       6
     111     171    -186     189       7     102     111     117     120      21
     102     111    -117     120      32     102     111     171     177       4
     102     111     171     186       4      99     102     111     117       4
      99     102     111     171      36      99     102    -111     171      37
      99     102    -111     171      38      96      90      99     102       9
      93      90      99     102       9      90      99     102     111       8
     276     279     288     291       1     276     279    -288     291       2
     276     279    -288     291       3     267     261     276     279       5
     267     261    -276     279       6     267     261    -276     279       7
     261     276     279     282       9     261     276     279     285       9
     261     276     279     288      10     261     276    -279     288      11
     261     276    -279     288      12     255     225     219     267      13
     243     240     252     255      15     240     252     255     258      16
     234     228     225     255      18     234     240    -252     255      15
     228     225     219     267      13     228     225     255     252      20
     228     225     255     258      20     228     234     240     243      17
     228     234    -240     252      17     225     219     267     261       4
     225     228     234     240      19     225     255    -252     240      16
     219     216    -210     261      21     219     216    -210     261      22
     219     225     228     234      18     219     225     255     252      20
     219     225     255     258      20     219     267     261     276       4
     216     210    -261     267      23     216     210     261     276      24
     216     210    -261     276      25     216     219     225     228      26
     216     219    -225     228      27     216     219    -225     228      28
     216     219     225     255      13     216     219    -267     261       4
     210     216     219     225      31     210     216    -219     225      32
     210     216    -219     267      21     210     216    -219     267      32
     210     261    -267     219      33     210     261    -267     219      34
     210     261     276     279       5     210     261    -276     279       6
     210     261    -276     279       7     201     210     216     219      21
     201     210    -216     219      32     201     210     261     267       4
     201     210     261     276       4     198     201     210     216       4
     198     201     210     261      36     198     201    -210     261      37
     198     201    -210     261      38     195     189     198     201       9
     192     189     198     201       9     189     198     201     210       8
     375     378     387     390       1     375     378    -387     390       2
     375     378    -387     390       3     366     360     375     378       5
     366     360    -375     378       6     366     360    -375     378       7
     360     375     378     381       9     360     375     378     384       9
     360     375     378     387      10     360     375    -378     387      11
     360     375    -378     387      12     357     315     309     366      13
     345     342     354     357      15     336     330     327     357      40
     336     342    -354     357      15     333     330     327     357      40
     333     330     336     342      41     330     327     357     354      42
     330     336     342     345      39     330     336    -342     354      39
     327     330     336     342      41     327     357    -354     342      43
     324     318    -315     357      44     324     327     330     333      40
     324     327     330     336      40     324     327     357     354      42
     318     315     309     366      13     318     315    -357     327      46
     318     315     357     354      46     318     324     327     330      17
     318     324    -327     357      17     315     309     366     360       4
     315     318    -324     327      45     315     357    -327     324      42
     315     357     327     330      42     315     357     354     342      43
     309     306    -300     360      21     309     306    -300     360      22
     309     315     318     324      44     309     315     357     327      46
     309     315     357     354      46     309     366     360     375       4
     306     300    -360     366      23     306     300     360     375      24
     306     300    -360     375      25     306     309     315     318      47
     306     309    -315     318      48     306     309    -315     318      49
     306     309     315     357      13     306     309    -366     360       4
     300     306     309     315      31     300     306    -309     315      32
     300     306    -309     366      21     300     306    -309     366      32
     300     360    -366     309      33     300     360    -366     309      34
     300     360     375     378       5     300     360    -375     378       6
     300     360    -375     378       7     291     300     306     309      21
     291     300    -306     309      32     291     300     360     366       4
     291     300     360     375       4     288     291     300     306       4
     288     291     300     360      36     288     291    -300     360      37
     288     291    -300     360      38     285     279     288     291       9
     282     279     288     291       9     279     288     291     300       8
     471     474     483     486       1     471     474    -483     486       2
     471     474    -483     486       3     462     456     471     474       5
     462     456    -471     474       6     462     456    -471     474       7
     456     471     474     477       9     456     471     474     480       9
     456     471     474     483      10     456     471    -474     483      11
     456     471    -474     483      12     453     414     408     462      13
     441     429     426     453      51     441     444    -450     453      50
     432     429     426     453      51     432     429     441     444      15
     429     426     453     450      42     429     441    -444     450      50
     426     429     441     444      15     426     453    -450     444      43
     423     417    -414     453      44     423     426     429     432      51
     423     426     429     441      51     423     426     453     450      42
     417     414     408     462      13     417     414    -453     426      46
     417     414     453     450      46     417     423     426     429      17
     417     423    -426     453      17     414     408     462     456       4
     414     417    -423     426      45     414     453    -426     423      42
     414     453     426     429      42     414     453     450     444      43
     408     405    -399     456      21     408     405    -399     456      22
     408     414     417     423      44     408     414     453     426      46
     408     414     453     450      46     408     462     456     471       4
     405     399    -456     462      23     405     399     456     471      24
     405     399    -456     471      25     405     408     414     417      52
     405     408    -414     417      53     405     408    -414     417      54
     405     408     414     453      13     405     408    -462     456       4
     399     405     408     414      31     399     405    -408     414      32
     399     405    -408     462      21     399     405    -408     462      32
     399     456    -462     408      33     399     456    -462     408      34
     399     456     471     474       5     399     456    -471     474       6
     399     456    -471     474       7     390     399     405     408      21
     390     399    -405     408      32     390     399     456     462       4
     390     399     456     471       4     387     390     399     405       4
     387     390     399     456      36     387     390    -399     456      37
     387     390    -399     456      38     384     378     387     390       9
     381     378     387     390       9     378     387     390     399       8
     567     570     579     582       1     567     570    -579     582       2
     567     570    -579     582       3     558     552     567     570       5
     558     552    -567     570       6     558     552    -567     570       7
     552     567     570     573       9     552     567     570     576       9
     552     567     570     579      10     552     567    -570     579      11
     552     567    -570     579      12     549     510     504     558      13
     537     525     522     549      51     537     540    -546     549      50
     528     525     522     549      51     528     525     537     540      15
     525     522     549     546      42     525     537    -540     546      50
     522     525     537     540      15     522     549    -546     540      43
     519     513    -510     549      44     519     522     525     528      51
     519     522     525     537      51     519     522     549     546      42
     513     510     504     558      13     513     510    -549     522      46
     513     510     549     546      46     513     519     522     525      17
     513     519    -522     549      17     510     504     558     552       4
     510     513    -519     522      45     510     549    -522     519      42
     510     549     522     525      42     510     549     546     540      43
     504     501    -495     552      21     504     501    -495     552      22
     504     510     513     519      44     504     510     549     522      46
     504     510     549     546      46     504     558     552     567       4
     501     495    -552     558      23     501     495     552     567      24
     501     495    -552     567      25     501     504     510     513      52
     501     504    -510     513      53     501     504    -510     513      54
     501     504     510     549      13     501     504    -558     552       4
     495     501     504     510      31     495     501    -504     510      32
     495     501    -504     558      21     495     501    -504     558      32
     495     552    -558     504      33     495     552    -558     504      34
     495     552     567     570       5     495     552    -567     570       6
     495     552    -567     570       7     486     495     501     504      21
     486     495    -501     504      32     486     495     552     558       4
     486     495     552     567       4     483     486     495     501       4
     483     486     495     552      36     483     486    -495     552      37
     483     486    -495     552      38     480     474     483     486       9
     477     474     483     486       9     474     483     486     495       8
     663     666     675     678       1     663     666    -675     678       2
     663     666    -675     678       3     654     648     663     666       5
     654     648    -663     666       6     654     648    -663     666       7
     648     663     666     669       9     648     663     666     672       9
     648     663     666     675      10     648     663    -666     675      11
     648     663    -666     675      12     642     606     600     654      13
     633     630     636     642      41     630     636     642     645      41
     618     615     630     633      55     618     615     630     636      55
     615     609     606     642      18     615     630    -636     642      41
     609     606     600     654      13     609     606     642     636      20
     609     606     642     645      20     609     615     630     633      55
     609     615    -630     633      58     609     615    -630     636      55
     606     600     654     648       4     606     609     615     618      19
     606     609     615     630      19     606     642    -636     630      41
     600     597    -591     648      21     600     597    -591     648      22
     600     606     609     615      18     600     606     642     636      20
     600     606     642     645      20     600     654     648     663       4
     597     591    -648     654      23     597     591     648     663      24
     597     591    -648     663      25     597     600     606     609      59
     597     600    -606     609      60     597     600    -606     609      61
     597     600     606     642      13     597     600    -654     648       4
     591     597     600     606      31     591     597    -600     606      32
     591     597    -600     654      21     591     597    -600     654      32
     591     648    -654     600      33     591     648    -654     600      34
     591     648     663     666       5     591     648    -663     666       6
     591     648    -663     666       7     582     591     597     600      21
     582     591    -597     600      32     582     591     648     654       4
     582     591     648     663       4     579     582     591     597       4
     579     582     591     648      36     579     582    -591     648      37
     579     582    -591     648      38     576     570     579     582       9
     573     570     579     582       9     570     579     582     591       8
     759     762     771     774       1     759     762    -771     774       2
     759     762    -771     774       3     750     744     759     762       5
     750     744    -759     762       6     750     744    -759     762       7
     744     759     762     765       9     744     759     762     768       9
     744     759     762     771      10     744     759    -762     771      11
     744     759    -762     771      12     738     702     696     750      13
     729     726     732     738      41     726     732     738     741      41
     714     711     726     729      55     714     711     726     732      55
     711     705     702     738      18     711     726    -732     738      41
     705     702     696     750      13     705     702     738     732      20
     705     702     738     741      20     705     711     726     729      55
     705     711    -726     729      58     705     711    -726     732      55
     702     696     750     744       4     702     705     711     714      19
     702     705     711     726      19     702     738    -732     726      41
     696     693    -687     744      21     696     693    -687     744      22
     696     702     705     711      18     696     702     738     732      20
     696     702     738     741      20     696     750     744     759       4
     693     687    -744     750      23     693     687     744     759      24
     693     687    -744     759      25     693     696     702     705      59
     693     696    -702     705      60     693     696    -702     705      61
     693     696     702     738      13     693     696    -750     744       4
     687     693     696     702      31     687     693    -696     702      32
     687     693    -696     750      21     687     693    -696     750      32
     687     744    -750     696      33     687     744    -750     696      34
     687     744     759     762       5     687     744    -759     762       6
     687     744    -759     762       7     678     687     693     696      21
     678     687    -693     696      32     678     687     744     750       4
     678     687     744     759       4     675     678     687     693       4
     675     678     687     744      36     675     678    -687     744      37
     675     678    -687     744      38     672     666     675     678       9
     669     666     675     678       9     666     675     678     687       8
     849     852     861     864       1     849     852    -861     864       2
     849     852    -861     864       3     840     834     849     852       5
     840     834    -849     852       6     840     834    -849     852       7
     834     849     852     855       9     834     849     852     858       9
     834     849     852     861      10     834     849    -852     861      11
     834     849    -852     861      12     828     798     792     840      13
     816     813     825     828      15     813     825     828     831      16
     807     801     798     828      18     807     813    -825     828      15
     801     798     792     840      13     801     798     828     825      20
     801     798     828     831      20     801     807     813     816      17
     801     807    -813     825      17     798     792     840     834       4
     798     801     807     813      19     798     828    -825     813      16
     792     789    -783     834      21     792     789    -783     834      22
     792     798     801     807      18     792     798     828     825      20
     792     798     828     831      20     792     840     834     849       4
     789     783    -834     840      23     789     783     834     849      24
     789     783    -834     849      25     789     792     798     801      26
     789     792    -798     801      27     789     792    -798     801      28
     789     792     798     828      13     789     792    -840     834       4
     783     789     792     798      31     783     789    -792     798      32
     783     789    -792     840      21     783     789    -792     840      32
     783     834    -840     792      33     783     834    -840     792      34
     783     834     849     852       5     783     834    -849     852       6
     783     834    -849     852       7     774     783     789     792      21
     774     783    -789     792      32     774     783     834     840       4
     774     783     834     849       4     771     774     783     789       4
     771     774     783     834      36     771     774    -783     834      37
     771     774    -783     834      38     768     762     771     774       9
     765     762     771     774       9     762     771     774     783       8
     948     951     960     963       1     948     951    -960     963       2
     948     951    -960     963       3     939     933     948     951       5
     939     933    -948     951       6     939     933    -948     951       7
     933     948     951     954       9     933     948     951     957       9
     933     948     951     960      10     933     948    -951     960      11
     933     948    -951     960      12     930     888     882     939      13
     918     915     927     930      15     909     903     900     930      40
     909     915    -927     930      15     906     903     900     930      40
     906     903     909     915      41     903     900     930     927      42
     903     909     915     918      39     903     909    -915     927      39
     900     903     909     915      41     900     930    -927     915      43
     897     891    -888     930      44     897     900     903     906      40
     897     900     903     909      40     897     900     930     927      42
     891     888     882     939      13     891     888    -930     900      46
     891     888     930     927      46     891     897     900     903      17
     891     897    -900     930      17     888     882     939     933       4
     888     891    -897     900      45     888     930    -900     897      42
     888     930     900     903      42     888     930     927     915      43
     882     879    -873     933      21     882     879    -873     933      22
     882     888     891     897      44     882     888     930     900      46
     882     888     930     927      46     882     939     933     948       4
     879     873    -933     939      23     879     873     933     948      24
     879     873    -933     948      25     879     882     888     891      47
     879     882    -888     891      48     879     882    -888     891      49
     879     882     888     930      13     879     882    -939     933       4
     873     879     882     888      31     873     879    -882     888      32
     873     879    -882     939      21     873     879    -882     939      32
     873     933    -939     882      33     873     933    -939     882      34
     873     933     948     951       5     873     933    -948     951       6
     873     933    -948     951       7     864     873     879     882      21
     864     873    -879     882      32     864     873     933     939       4
     864     873     933     948       4     861     864     873     879       4
     861     864     873     933      36     861     864    -873     933      37
     861     864    -873     933      38     858     852     861     864       9
     855     852     861     864       9     852     861     864     873       8
    1038    1041    1050    1053       1    1038    1041   -1050    1053       2
    1038    1041   -1050    1053       3    1029    1023    1038    1041       5
    1029    1023   -1038    1041       6    1029    1023   -1038    1041       7
    1023    1038    1041    1044       9    1023    1038    1041    1047       9
    1023    1038    1041    1050      10    1023    1038   -1041    1050      11
    1023    1038   -1041    1050      12    1017     987     981    1029      13
    1005    1002    1014    1017      15    1002    1014    1017    1020      16
     996     990     987    1017      18     996    1002   -1014    1017      15
     990     987     981    1029      13     990     987    1017    1014      20
     990     987    1017    1020      20     990     996    1002    1005      17
     990     996   -1002    1014      17     987     981    1029    1023       4
     987     990     996    1002      19     987    1017   -1014    1002      16
     981     978    -972    1023      21     981     978    -972    1023      22
     981     987     990     996      18     981     987    1017    1014      20
     981     987    1017    1020      20     981    1029    1023    1038       4
     978     972   -1023    1029      23     978     972    1023    1038      24
     978     972   -1023    1038      25     978     981     987     990      26
     978     981    -987     990      27     978     981    -987     990      28
     978     981     987    1017      13     978     981   -1029    1023       4
     972     978     981     987      31     972     978    -981     987      32
     972     978    -981    1029      21     972     978    -981    1029      32
     972    1023   -1029     981      33     972    1023   -1029     981      34
     972    1023    1038    1041       5     972    1023   -1038    1041       6
     972    1023   -1038    1041       7     963     972     978     981      21
     963     972    -978     981      32     963     972    1023    1029       4
     963     972    1023    1038       4     960     963     972     978       4
     960     963     972    1023      36     960     963    -972    1023      37
     960     963    -972    1023      38     957     951     960     963       9
     954     951     960     963       9     951     960     963     972       8
    1119    1077    1071    1128      13    1107    1104    1116    1119      15
    1098    1092    1089    1119      40    1098    1104   -1116    1119      15
    1095    1092    1089    1119      40    1095    1092    1098    1104      41
    1092    1089    1119    1116      42    1092    1098    1104    1107      39
    1092    1098   -1104    1116      39    1089    1092    1098    1104      41
    1089    1119   -1116    1104      43    1086    1080   -1077    1119      44
    1086    1089    1092    1095      40    1086    1089    1092    1098      40
    1086    1089    1119    1116      42    1080    1077    1071    1128      13
    1080    1077   -1119    1089      46    1080    1077    1119    1116      46
    1080    1086    1089    1092      17    1080    1086   -1089    1119      17
    1077    1071    1128    1122       4    1077    1080   -1086    1089      45
    1077    1119   -1089    1086      42    1077    1119    1089    1092      42
    1077    1119    1116    1104      43    1071    1068   -1062    1122      21
    1071    1068   -1062    1122      22    1071    1077    1080    1086      44
    1071    1077    1119    1089      46    1071    1077    1119    1116      46
    1071    1128    1122    1137       4    1068    1062   -1122    1128      23
    1068    1062    1122    1137      24    1068    1062   -1122    1137      25
    1068    1071    1077    1080      47    1068    1071   -1077    1080      48
    1068    1071   -1077    1080      49    1068    1071    1077    1119      13
    1068    1071   -1128    1122       4    1062    1068    1071    1077      31
    1062    1068   -1071    1077      32    1062    1068   -1071    1128      21
    1062    1068   -1071    1128      32    1062    1122   -1128    1071      33
    1062    1122   -1128    1071      34    1053    1062    1068    1071      21
    1053    1062   -1068    1071      32    1053    1062    1122    1128       4
    1053    1062    1122    1137       4    1050    1053    1062    1068       4
    1050    1053    1062    1122      36    1050    1053   -1062    1122      37
    1050    1053   -1062    1122      38    1047    1041    1050    1053       9
    1044    1041    1050    1053       9    1041    1050    1053    1062       8
    1227    1230    1239    1242       1    1227    1230   -1239    1242       2
    1227    1230   -1239    1242       3    1218    1212    1227    1230       5
    1218    1212   -1227    1230       6    1218    1212   -1227    1230       7
    1212    1227    1230    1233       9    1212    1227    1230    1236       9
    1212    1227    1230    1239      10    1212    1227   -1230    1239      11
    1212    1227   -1230    1239      12    1206    1176    1170    1218      13
    1194    1191    1203    1206      15    1191    1203    1206    1209      16
    1185    1179    1176    1206      18    1185    1191   -1203    1206      15
    1179    1176    1170    1218      13    1179    1176    1206    1203      20
    1179    1176    1206    1209      20    1179    1185    1191    1194      17
    1179    1185   -1191    1203      17    1176    1170    1218    1212       4
    1176    1179    1185    1191      19    1176    1206   -1203    1191      16
    1170    1167   -1161    1212      21    1170    1167   -1161    1212      22
    1170    1176    1179    1185      18    1170    1176    1206    1203      20
    1170    1176    1206    1209      20    1170    1218    1212    1227       4
    1167    1161   -1212    1218      23    1167    1161    1212    1227      24
    1167    1161   -1212    1227      25    1167    1170    1176    1179      26
    1167    1170   -1176    1179      27    1167    1170   -1176    1179      28
    1167    1170    1176    1206      13    1167    1170   -1218    1212       4
    1161    1167    1170    1176      31    1161    1167   -1170    1176      32
    1161    1167   -1170    1218      21    1161    1167   -1170    1218      32
    1161    1212   -1218    1170      33    1161    1212   -1218    1170      34
    1161    1212    1227    1230       5    1161    1212   -1227    1230       6
    1161    1212   -1227    1230       7    1152    1161    1167    1170      21
    1152    1161   -1167    1170      32    1152    1161    1212    1218       4
    1152    1161    1212    1227       4    1149    1152    1161    1167       4
    1149    1152    1161    1212      36    1149    1152   -1161    1212      37
    1149    1152   -1161    1212      38    1146    1140    1149    1152       9
    1143    1140    1149    1152       9    1140    1149    1152    1161       8
    1326    1329    1338    1341       1    1326    1329   -1338    1341       2
    1326    1329   -1338    1341       3    1317    1311    1326    1329       5
    1317    1311   -1326    1329       6    1317    1311   -1326    1329       7
    1311    1326    1329    1332       9    1311    1326    1329    1335       9
    1311    1326    1329    1338      10    1311    1326   -1329    1338      11
    1311    1326   -1329    1338      12    1308    1266    1260    1317      13
    1296    1293    1305    1308      15    1287    1281    1278    1308      40
    1287    1293   -1305    1308      15    1284    1281    1278    1308      40
    1284    1281    1287    1293      41    1281    1278    1308    1305      42
    1281    1287    1293    1296      39    1281    1287   -1293    1305      39
    1278    1281    1287    1293      41    1278    1308   -1305    1293      43
    1275    1269   -1266    1308      44    1275    1278    1281    1284      40
    1275    1278    1281    1287      40    1275    1278    1308    1305      42
    1269    1266    1260    1317      13    1269    1266   -1308    1278      46
    1269    1266    1308    1305      46    1269    1275    1278    1281      17
    1269    1275   -1278    1308      17    1266    1260    1317    1311       4
    1266    1269   -1275    1278      45    1266    1308   -1278    1275      42
    1266    1308    1278    1281      42    1266    1308    1305    1293      43
    1260    1257   -1251    1311      21    1260    1257   -1251    1311      22
    1260    1266    1269    1275      44    1260    1266    1308    1278      46
    1260    1266    1308    1305      46    1260    1317    1311    1326       4
    1257    1251   -1311    1317      23    1257    1251    1311    1326      24
    1257    1251   -1311    1326      25    1257    1260    1266    1269      47
    1257    1260   -1266    1269      48    1257    1260   -1266    1269      49
    1257    1260    1266    1308      13    1257    1260   -1317    1311       4
    1251    1257    1260    1266      31    1251    1257   -1260    1266      32
    1251    1257   -1260    1317      21    1251    1257   -1260    1317      32
    1251    1311   -1317    1260      33    1251    1311   -1317    1260      34
    1251    1311    1326    1329       5    1251    1311   -1326    1329       6
    1251    1311   -1326    1329       7    1242    1251    1257    1260      21
    1242    1251   -1257    1260      32    1242    1251    1311    1317       4
    1242    1251    1311    1326       4    1239    1242    1251    1257       4
    1239    1242    1251    1311      36    1239    1242   -1251    1311      37
    1239    1242   -1251    1311      38    1236    1230    1239    1242       9
    1233    1230    1239    1242       9    1230    1239    1242    1251       8
    1416    1419    1428    1431       1    1416    1419   -1428    1431       2
    1416    1419   -1428    1431       3    1407    1401    1416    1419       5
    1407    1401   -1416    1419       6    1407    1401   -1416    1419       7
    1401    1416    1419    1422       9    1401    1416    1419    1425       9
    1401    1416    1419    1428      10    1401    1416   -1419    1428      11
    1401    1416   -1419    1428      12    1395    1365    1359    1407      13
    1383    1380    1392    1395      15    1380    1392    1395    1398      16
    1374    1368    1365    1395      18    1374    1380   -1392    1395      15
    1368    1365    1359    1407      13    1368    1365    1395    1392      20
    1368    1365    1395    1398      20    1368    1374    1380    1383      17
    1368    1374   -1380    1392      17    1365    1359    1407    1401       4
    1365    1368    1374    1380      19    1365    1395   -1392    1380      16
    1359    1356   -1350    1401      21    1359    1356   -1350    1401      22
    1359    1365    1368    1374      18    1359    1365    1395    1392      20
    1359    1365    1395    1398      20    1359    1407    1401    1416       4
    1356    1350   -1401    1407      23    1356    1350    1401    1416      24
    1356    1350   -1401    1416      25    1356    1359    1365    1368      26
    1356    1359   -1365    1368      27    1356    1359   -1365    1368      28
    1356    1359    1365    1395      13    1356    1359   -1407    1401       4
    1350    1356    1359    1365      31    1350    1356   -1359    1365      32
    1350    1356   -1359    1407      21    1350    1356   -1359    1407      32
    1350    1401   -1407    1359      33    1350    1401   -1407    1359      34
    1350    1401    1416    1419       5    1350    1401   -1416    1419       6
    1350    1401   -1416    1419       7    1341    1350    1356    1359      21
    1341    1350   -1356    1359      32    1341    1350    1401    1407       4
    1341    1350    1401    1416       4    1338    1341    1350    1356       4
    1338    1341    1350    1401      36    1338    1341   -1350    1401      37
    1338    1341   -1350    1401      38    1335    1329    1338    1341       9
    1332    1329    1338    1341       9    1329    1338    1341    1350       8
    1515    1518    1527    1530       1    1515    1518   -1527    1530       2
    1515    1518   -1527    1530       3    1506    1500    1515    1518       5
    1506    1500   -1515    1518       6    1506    1500   -1515    1518       7
    1500    1515    1518    1521       9    1500    1515    1518    1524       9
    1500    1515    1518    1527      10    1500    1515   -1518    1527      11
    1500    1515   -1518    1527      12    1497    1455    1449    1506      13
    1485    1482    1494    1497      15    1476    1470    1467    1497      40
    1476    1482   -1494    1497      15    1473    1470    1467    1497      40
    1473    1470    1476    1482      41    1470    1467    1497    1494      42
    1470    1476    1482    1485      39    1470    1476   -1482    1494      39
    1467    1470    1476    1482      41    1467    1497   -1494    1482      43
    1464    1458   -1455    1497      44    1464    1467    1470    1473      40
    1464    1467    1470    1476      40    1464    1467    1497    1494      42
    1458    1455    1449    1506      13    1458    1455   -1497    1467      46
    1458    1455    1497    1494      46    1458    1464    1467    1470      17
    1458    1464   -1467    1497      17    1455    1449    1506    1500       4
    1455    1458   -1464    1467      45    1455    1497   -1467    1464      42
    1455    1497    1467    1470      42    1455    1497    1494    1482      43
    1449    1446   -1440    1500      21    1449    1446   -1440    1500      22
    1449    1455    1458    1464      44    1449    1455    1497    1467      46
    1449    1455    1497    1494      46    1449    1506    1500    1515       4
    1446    1440   -1500    1506      23    1446    1440    1500    1515      24
    1446    1440   -1500    1515      25    1446    1449    1455    1458      47
    1446    1449   -1455    1458      48    1446    1449   -1455    1458      49
    1446    1449    1455    1497      13    1446    1449   -1506    1500       4
    1440    1446    1449    1455      31    1440    1446   -1449    1455      32
    1440    1446   -1449    1506      21    1440    1446   -1449    1506      32
    1440    1500   -1506    1449      33    1440    1500   -1506    1449      34
    1440    1500    1515    1518       5    1440    1500   -1515    1518       6
    1440    1500   -1515    1518       7    1431    1440    1446    1449      21
    1431    1440   -1446    1449      32    1431    1440    1500    1506       4
    1431    1440    1500    1515       4    1428    1431    1440    1446       4
    1428    1431    1440    1500      36    1428    1431   -1440    1500      37
    1428    1431   -1440    1500      38    1425    1419    1428    1431       9
    1422    1419    1428    1431       9    1419    1428    1431    1440       8
    1611    1614    1623    1626       1    1611    1614   -1623    1626       2
    1611    1614   -1623    1626       3    1602    1596    1611    1614       5
    1602    1596   -1611    1614       6    1602    1596   -1611    1614       7
    1596    1611    1614    1617       9    1596    1611    1614    1620       9
    1596    1611    1614    1623      10    1596    1611   -1614    1623      11
    1596    1611   -1614    1623      12    1593    1554    1548    1602      13
    1581    1569    1566    1593      51    1581    1584   -1590    1593      50
    1572    1569    1566    1593      51    1572    1569    1581    1584      15
    1569    1566    1593    1590      42    1569    1581   -1584    1590      50
    1566    1569    1581    1584      15    1566    1593   -1590    1584      43
    1563    1557   -1554    1593      44    1563    1566    1569    1572      51
    1563    1566    1569    1581      51    1563    1566    1593    1590      42
    1557    1554    1548    1602      13    1557    1554   -1593    1566      46
    1557    1554    1593    1590      46    1557    1563    1566    1569      17
    1557    1563   -1566    1593      17    1554    1548    1602    1596       4
    1554    1557   -1563    1566      45    1554    1593   -1566    1563      42
    1554    1593    1566    1569      42    1554    1593    1590    1584      43
    1548    1545   -1539    1596      21    1548    1545   -1539    1596      22
    1548    1554    1557    1563      44    1548    1554    1593    1566      46
    1548    1554    1593    1590      46    1548    1602    1596    1611       4
    1545    1539   -1596    1602      23    1545    1539    1596    1611      24
    1545    1539   -1596    1611      25    1545    1548    1554    1557      52
    1545    1548   -1554    1557      53    1545    1548   -1554    1557      54
    1545    1548    1554    1593      13    1545    1548   -1602    1596       4
    1539    1545    1548    1554      31    1539    1545   -1548    1554      32
    1539    1545   -1548    1602      21    1539    1545   -1548    1602      32
    1539    1596   -1602    1548      33    1539    1596   -1602    1548      34
    1539    1596    1611    1614       5    1539    1596   -1611    1614       6
    1539    1596   -1611    1614       7    1530    1539    1545    1548      21
    1530    1539   -1545    1548      32    1530    1539    1596    1602       4
    1530    1539    1596    1611       4    1527    1530    1539    1545       4
    1527    1530    1539    1596      36    1527    1530   -1539    1596      37
    1527    1530   -1539    1596      38    1524    1518    1527    1530       9
    1521    1518    1527    1530       9    1518    1527    1530    1539       8
    1707    1710    1719    1722       1    1707    1710   -1719    1722       2
    1707    1710   -1719    1722       3    1698    1692    1707    1710       5
    1698    1692   -1707    1710       6    1698    1692   -1707    1710       7
    1692    1707    1710    1713       9    1692    1707    1710    1716       9
    1692    1707    1710    1719      10    1692    1707   -1710    1719      11
    1692    1707   -1710    1719      12    1689    1650    1644    1698      13
    1677    1665    1662    1689      51    1677    1680   -1686    1689      50
    1668    1665    1662    1689      51    1668    1665    1677    1680      15
    1665    1662    1689    1686      42    1665    1677   -1680    1686      50
    1662    1665    1677    1680      15    1662    1689   -1686    1680      43
    1659    1653   -1650    1689      44    1659    1662    1665    1668      51
    1659    1662    1665    1677      51    1659    1662    1689    1686      42
    1653    1650    1644    1698      13    1653    1650   -1689    1662      46
    1653    1650    1689    1686      46    1653    1659    1662    1665      17
    1653    1659   -1662    1689      17    1650    1644    1698    1692       4
    1650    1653   -1659    1662      45    1650    1689   -1662    1659      42
    1650    1689    1662    1665      42    1650    1689    1686    1680      43
    1644    1641   -1635    1692      21    1644    1641   -1635    1692      22
    1644    1650    1653    1659      44    1644    1650    1689    1662      46
    1644    1650    1689    1686      46    1644    1698    1692    1707       4
    1641    1635   -1692    1698      23    1641    1635    1692    1707      24
    1641    1635   -1692    1707      25    1641    1644    1650    1653      52
    1641    1644   -1650    1653      53    1641    1644   -1650    1653      54
    1641    1644    1650    1689      13    1641    1644   -1698    1692       4
    1635    1641    1644    1650      31    1635    1641   -1644    1650      32
    1635    1641   -1644    1698      21    1635    1641   -1644    1698      32
    1635    1692   -1698    1644      33    1635    1692   -1698    1644      34
    1635    1692    1707    1710       5    1635    1692   -1707    1710       6
    1635    1692   -1707    1710       7    1626    1635    1641    1644      21
    1626    1635   -1641    1644      32    1626    1635    1692    1698       4
    1626    1635    1692    1707       4    1623    1626    1635    1641       4
    1623    1626    1635    1692      36    1623    1626   -1635    1692      37
    1623    1626   -1635    1692      38    1620    1614    1623    1626       9
    1617    1614    1623    1626       9    1614    1623    1626    1635       8
    1803    1806    1815    1818       1    1803    1806   -1815    1818       2
    1803    1806   -1815    1818       3    1794    1788    1803    1806       5
    1794    1788   -1803    1806       6    1794    1788   -1803    1806       7
    1788    1803    1806    1809       9    1788    1803    1806    1812       9
    1788    1803    1806    1815      10    1788    1803   -1806    1815      11
    1788    1803   -1806    1815      12    1782    1746    1740    1794      13
    1773    1770    1776    1782      41    1770    1776    1782    1785      41
    1758    1755    1770    1773      55    1758    1755    1770    1776      55
    1755    1749    1746    1782      18    1755    1770   -1776    1782      41
    1749    1746    1740    1794      13    1749    1746    1782    1776      20
    1749    1746    1782    1785      20    1749    1755    1770    1773      55
    1749    1755   -1770    1773      58    1749    1755   -1770    1776      55
    1746    1740    1794    1788       4    1746    1749    1755    1758      19
    1746    1749    1755    1770      19    1746    1782   -1776    1770      41
    1740    1737   -1731    1788      21    1740    1737   -1731    1788      22
    1740    1746    1749    1755      18    1740    1746    1782    1776      20
    1740    1746    1782    1785      20    1740    1794    1788    1803       4
    1737    1731   -1788    1794      23    1737    1731    1788    1803      24
    1737    1731   -1788    1803      25    1737    1740    1746    1749      59
    1737    1740   -1746    1749      60    1737    1740   -1746    1749      61
    1737    1740    1746    1782      13    1737    1740   -1794    1788       4
    1731    1737    1740    1746      31    1731    1737   -1740    1746      32
    1731    1737   -1740    1794      21    1731    1737   -1740    1794      32
    1731    1788   -1794    1740      33    1731    1788   -1794    1740      34
    1731    1788    1803    1806       5    1731    1788   -1803    1806       6
    1731    1788   -1803    1806       7    1722    1731    1737    1740      21
    1722    1731   -1737    1740      32    1722    1731    1788    1794       4
    1722    1731    1788    1803       4    1719    1722    1731    1737       4
    1719    1722    1731    1788      36    1719    1722   -1731    1788      37
    1719    1722   -1731    1788      38    1716    1710    1719    1722       9
    1713    1710    1719    1722       9    1710    1719    1722    1731       8
    1899    1902    1911    1914       1    1899    1902   -1911    1914       2
    1899    1902   -1911    1914       3    1890    1884    1899    1902       5
    1890    1884   -1899    1902       6    1890    1884   -1899    1902       7
    1884    1899    1902    1905       9    1884    1899    1902    1908       9
    1884    1899    1902    1911      10    1884    1899   -1902    1911      11
    1884    1899   -1902    1911      12    1878    1842    1836    1890      13
    1869    1866    1872    1878      41    1866    1872    1878    1881      41
    1854    1851    1866    1869      55    1854    1851    1866    1872      55
    1851    1845    1842    1878      18    1851    1866   -1872    1878      41
    1845    1842    1836    1890      13    1845    1842    1878    1872      20
    1845    1842    1878    1881      20    1845    1851    1866    1869      55
    1845    1851   -1866    1869      58    1845    1851   -1866    1872      55
    1842    1836    1890    1884       4    1842    1845    1851    1854      19
    1842    1845    1851    1866      19    1842    1878   -1872    1866      41
    1836    1833   -1827    1884      21    1836    1833   -1827    1884      22
    1836    1842    1845    1851      18    1836    1842    1878    1872      20
    1836    1842    1878    1881      20    1836    1890    1884    1899       4
    1833    1827   -1884    1890      23    1833    1827    1884    1899      24
    1833    1827   -1884    1899      25    1833    1836    1842    1845      59
    1833    1836   -1842    1845      60    1833    1836   -1842    1845      61
    1833    1836    1842    1878      13    1833    1836   -1890    1884       4
    1827    1833    1836    1842      31    1827    1833   -1836    1842      32
    1827    1833   -1836    1890      21    1827    1833   -1836    1890      32
    1827    1884   -1890    1836      33    1827    1884   -1890    1836      34
    1827    1884    1899    1902       5    1827    1884   -1899    1902       6
    1827    1884   -1899    1902       7    1818    1827    1833    1836      21
    1818    1827   -1833    1836      32    1818    1827    1884    1890       4
    1818    1827    1884    1899       4    1815    1818    1827    1833       4
    1815    1818    1827    1884      36    1815    1818   -1827    1884      37
    1815    1818   -1827    1884      38    1812    1806    1815    1818       9
    1809    1806    1815    1818       9    1806    1815    1818    1827       8
    1989    1992    2001    2004       1    1989    1992   -2001    2004       2
    1989    1992   -2001    2004       3    1980    1974    1989    1992       5
    1980    1974   -1989    1992       6    1980    1974   -1989    1992       7
    1974    1989    1992    1995       9    1974    1989    1992    1998       9
    1974    1989    1992    2001      10    1974    1989   -1992    2001      11
    1974    1989   -1992    2001      12    1968    1938    1932    1980      13
    1956    1953    1965    1968      15    1953    1965    1968    1971      16
    1947    1941    1938    1968      18    1947    1953   -1965    1968      15
    1941    1938    1932    1980      13    1941    1938    1968    1965      20
    1941    1938    1968    1971      20    1941    1947    1953    1956      17
    1941    1947   -1953    1965      17    1938    1932    1980    1974       4
    1938    1941    1947    1953      19    1938    1968   -1965    1953      16
    1932    1929   -1923    1974      21    1932    1929   -1923    1974      22
    1932    1938    1941    1947      18    1932    1938    1968    1965      20
    1932    1938    1968    1971      20    1932    1980    1974    1989       4
    1929    1923   -1974    1980      23    1929    1923    1974    1989      24
    1929    1923   -1974    1989      25    1929    1932    1938    1941      26
    1929    1932   -1938    1941      27    1929    1932   -1938    1941      28
    1929    1932    1938    1968      13    1929    1932   -1980    1974       4
    1923    1929    1932    1938      31    1923    1929   -1932    1938      32
    1923    1929   -1932    1980      21    1923    1929   -1932    1980      32
    1923    1974   -1980    1932      33    1923    1974   -1980    1932      34
    1923    1974    1989    1992       5    1923    1974   -1989    1992       6
    1923    1974   -1989    1992       7    1914    1923    1929    1932      21
    1914    1923   -1929    1932      32    1914    1923    1974    1980       4
    1914    1923    1974    1989       4    1911    1914    1923    1929       4
    1911    1914    1923    1974      36    1911    1914   -1923    1974      37
    1911    1914   -1923    1974      38    1908    1902    1911    1914       9
    1905    1902    1911    1914       9    1902    1911    1914    1923       8
    2088    2091    2100    2103       1    2088    2091   -2100    2103       2
    2088    2091   -2100    2103       3    2079    2073    2088    2091       5
    2079    2073   -2088    2091       6    2079    2073   -2088    2091       7
    2073    2088    2091    2094       9    2073    2088    2091    2097       9
    2073    2088    2091    2100      10    2073    2088   -2091    2100      11
    2073    2088   -2091    2100      12    2070    2028    2022    2079      13
    2058    2055    2067    2070      15    2049    2043    2040    2070      40
    2049    2055   -2067    2070      15    2046    2043    2040    2070      40
    2046    2043    2049    2055      41    2043    2040    2070    2067      42
    2043    2049    2055    2058      39    2043    2049   -2055    2067      39
    2040    2043    2049    2055      41    2040    2070   -2067    2055      43
    2037    2031   -2028    2070      44    2037    2040    2043    2046      40
    2037    2040    2043    2049      40    2037    2040    2070    2067      42
    2031    2028    2022    2079      13    2031    2028   -2070    2040      46
    2031    2028    2070    2067      46    2031    2037    2040    2043      17
    2031    2037   -2040    2070      17    2028    2022    2079    2073       4
    2028    2031   -2037    2040      45    2028    2070   -2040    2037      42
    2028    2070    2040    2043      42    2028    2070    2067    2055      43
    2022    2019   -2013    2073      21    2022    2019   -2013    2073      22
    2022    2028    2031    2037      44    2022    2028    2070    2040      46
    2022    2028    2070    2067      46    2022    2079    2073    2088       4
    2019    2013   -2073    2079      23    2019    2013    2073    2088      24
    2019    2013   -2073    2088      25    2019    2022    2028    2031      47
    2019    2022   -2028    2031      48    2019    2022   -2028    2031      49
    2019    2022    2028    2070      13    2019    2022   -2079    2073       4
    2013    2019    2022    2028      31    2013    2019   -2022    2028      32
    2013    2019   -2022    2079      21    2013    2019   -2022    2079      32
    2013    2073   -2079    2022      33    2013    2073   -2079    2022      34
    2013    2073    2088    2091       5    2013    2073   -2088    2091       6
    2013    2073   -2088    2091       7    2004    2013    2019    2022      21
    2004    2013   -2019    2022      32    2004    2013    2073    2079       4
    2004    2013    2073    2088       4    2001    2004    2013    2019       4
    2001    2004    2013    2073      36    2001    2004   -2013    2073      37
    2001    2004   -2013    2073      38    1998    1992    2001    2004       9
    1995    1992    2001    2004       9    1992    2001    2004    2013       8
    2178    2181    2190    2193       1    2178    2181   -2190    2193       2
    2178    2181   -2190    2193       3    2169    2163    2178    2181       5
    2169    2163   -2178    2181       6    2169    2163   -2178    2181       7
    2163    2178    2181    2184       9    2163    2178    2181    2187       9
    2163    2178    2181    2190      10    2163    2178   -2181    2190      11
    2163    2178   -2181    2190      12    2157    2127    2121    2169      13
    2145    2142    2154    2157      15    2142    2154    2157    2160      16
    2136    2130    2127    2157      18    2136    2142   -2154    2157      15
    2130    2127    2121    2169      13    2130    2127    2157    2154      20
    2130    2127    2157    2160      20    2130    2136    2142    2145      17
    2130    2136   -2142    2154      17    2127    2121    2169    2163       4
    2127    2130    2136    2142      19    2127    2157   -2154    2142      16
    2121    2118   -2112    2163      21    2121    2118   -2112    2163      22
    2121    2127    2130    2136      18    2121    2127    2157    2154      20
    2121    2127    2157    2160      20    2121    2169    2163    2178       4
    2118    2112   -2163    2169      23    2118    2112    2163    2178      24
    2118    2112   -2163    2178      25    2118    2121    2127    2130      26
    2118    2121   -2127    2130      27    2118    2121   -2127    2130      28
    2118    2121    2127    2157      13    2118    2121   -2169    2163       4
    2112    2118    2121    2127      31    2112    2118   -2121    2127      32
    2112    2118   -2121    2169      21    2112    2118   -2121    2169      32
    2112    2163   -2169    2121      33    2112    2163   -2169    2121      34
    2112    2163    2178    2181       5    2112    2163   -2178    2181       6
    2112    2163   -2178    2181       7    2103    2112    2118    2121      21
    2103    2112   -2118    2121      32    2103    2112    2163    2169       4
    2103    2112    2163    2178       4    2100    2103    2112    2118       4
    2100    2103    2112    2163      36    2100    2103   -2112    2163      37
    2100    2103   -2112    2163      38    2097    2091    2100    2103       9
    2094    2091    2100    2103       9    2091    2100    2103    2112       8
    2259    2217    2211    2268      13    2247    2244    2256    2259      15
    2238    2232    2229    2259      40    2238    2244   -2256    2259      15
    2235    2232    2229    2259      40    2235    2232    2238    2244      41
    2232    2229    2259    2256      42    2232    2238    2244    2247      39
    2232    2238   -2244    2256      39    2229    2232    2238    2244      41
    2229    2259   -2256    2244      43    2226    2220   -2217    2259      44
    2226    2229    2232    2235      40    2226    2229    2232    2238      40
    2226    2229    2259    2256      42    2220    2217    2211    2268      13
    2220    2217   -2259    2229      46    2220    2217    2259    2256      46
    2220    2226    2229    2232      17    2220    2226   -2229    2259      17
    2217    2211    2268    2262       4    2217    2220   -2226    2229      45
    2217    2259   -2229    2226      42    2217    2259    2229    2232      42
    2217    2259    2256    2244      43    2211    2208   -2202    2262      21
    2211    2208   -2202    2262      22    2211    2217    2220    2226      44
    2211    2217    2259    2229      46    2211    2217    2259    2256      46
    2211    2268    2262    2277       4    2208    2202   -2262    2268      23
    2208    2202    2262    2277      24    2208    2202   -2262    2277      25
    2208    2211    2217    2220      47    2208    2211   -2217    2220      48
    2208    2211   -2217    2220      49    2208    2211    2217    2259      13
    2208    2211   -2268    2262       4    2202    2208    2211    2217      31
    2202    2208   -2211    2217      32    2202    2208   -2211    2268      21
    2202    2208   -2211    2268      32    2202    2262   -2268    2211      33
    2202    2262   -2268    2211      34    2193    2202    2208    2211      21
    2193    2202   -2208    2211      32    2193    2202    2262    2268       4
    2193    2202    2262    2277       4    2190    2193    2202    2208       4
    2190    2193    2202    2262      36    2190    2193   -2202    2262      37
    2190    2193   -2202    2262      38    2187    2181    2190    2193       9
    2184    2181    2190    2193       9    2181    2190    2193    2202       8
      36      63     -66     -69      62      45      54     -51     -63      64
      66      39     -36     -30      63     156     147    -153    -165      64
     138     147    -141    -144      62     168     129    -126    -120      63
     225     252    -255    -258      62     234     243    -240    -252      64
     255     228    -225    -219      63     345     336    -342    -354      64
     327     336    -330    -333      62     357     318    -315    -309      63
     426     432    -429    -441      64     453     417    -414    -408      63
     522     528    -525    -537      64     513     549    -510    -504      63
     606     636    -642    -645      62     615     636    -630    -633      62
     630     609    -615    -618      64     642     609    -606    -600      63
     702     732    -738    -741      62     711     732    -726    -729      62
     726     705    -711    -714      64     738     705    -702    -696      63
     798     825    -828    -831      62     807     816    -813    -825      64
     828     801    -798    -792      63     918     909    -915    -927      64
     900     909    -903    -906      62     930     891    -888    -882      63
     987    1014   -1017   -1020      62     996    1005   -1002   -1014      64
    1017     990    -987    -981      63    1107    1098   -1104   -1116      64
    1089    1098   -1092   -1095      62    1119    1080   -1077   -1071      63
    1176    1203   -1206   -1209      62    1185    1194   -1191   -1203      64
    1206    1179   -1176   -1170      63    1296    1287   -1293   -1305      64
    1278    1287   -1281   -1284      62    1308    1269   -1266   -1260      63
    1365    1392   -1395   -1398      62    1374    1383   -1380   -1392      64
    1395    1368   -1365   -1359      63    1485    1476   -1482   -1494      64
    1467    1476   -1470   -1473      62    1497    1458   -1455   -1449      63
    1566    1572   -1569   -1581      64    1557    1593   -1554   -1548      63
    1662    1668   -1665   -1677      64    1653    1689   -1650   -1644      63
    1746    1776   -1782   -1785      62    1755    1776   -1770   -1773      62
    1770    1749   -1755   -1758      64    1782    1749   -1746   -1740      63
    1842    1872   -1878   -1881      62    1851    1872   -1866   -1869      62
    1866    1845   -1851   -1854      64    1878    1845   -1842   -1836      63
    1938    1965   -1968   -1971      62    1947    1956   -1953   -1965      64
    1968    1941   -1938   -1932      63    2058    2049   -2055   -2067      64
    2040    2049   -2043   -2046      62    2070    2031   -2028   -2022      63
    2127    2154   -2157   -2160      62    2136    2145   -2142   -2154      64
    2157    2130   -2127   -2121      63    2247    2238   -2244   -2256      64
    2229    2238   -2232   -2235      62    2259    2220   -2217   -2211      63
%FLAG EXCLUDED_ATOMS_LIST                                                       
%FORMAT(10I8)                                                                   
       2       3       4       5       6       7       8       3       4       5
       4       5       5       6       7       8       9      10      25       6
       7       8       9      10      11      25      26      27      30       7
       8       9      10      25       8       9      10      25       9      10
      11      12      13      25      26      27      28      29      30      31
      10      11      25      26      27      30      11      12      13      14
      23      25      26      27      28      29      30      12      13      14
      15      16      22      23      24      25      26      27      28      29
      30      13      14      23      25      27      28      29      14      15
      16      17      18      22      23      24      25      27      28      29
      15      16      17      18      19      22      23      24      27      16
      17      18      23      17      18      19      20      21      22      23
      18      19      22      19      20      21      22      23      24      20
      21      22      23      21      22      22      23      24      24      27
       0      26      27      28      29      30      31      32      33      34
      27      28      29      30      31      28      29      30      31      29
      30      30      31      32      33      34      35      32      33      34
      35      36      37      38      33      34      35      34      35      35
      36      37      38      39      40      58      36      37      38      39
      40      41      58      59      60      63      37      38      39      40
      58      38      39      40      58      39      40      41      42      43
      58      59      60      61      62      63      64      40      41      58
      59      60      63      41      42      43      44      57      58      59
      60      61      62      63      42      43      44      45      46      47
      56      57      58      59      60      61      62      63      43      44
      57      58      60      61      62      44      45      46      47      48
      52      56      57      58      60      61      62      45      46      47
      48      56      57      60      46      47      57      47      48      49
      50      56      57      48      49      50      51      52      56      57
      49      50      51      52      53      56      57      50      51      52
      57      51      52      53      54      55      56      57      52      53
      56      53      54      55      56      57      54      55      56      57
      55      56      56      57      60      59      60      61      62      63
      64      65      66      67      60      61      62      63      64      61
      62      63      64      62      63      63      64      65      66      67
      68      65      66      67      68      69      70      71      66      67
      68      67      68      68      69      70      71      72      73      88
      69      70      71      72      73      74      88      89      90      93
      70      71      72      73      88      71      72      73      88      72
      73      74      75      76      88      89      90      91      92      93
      94      73      74      88      89      90      93      74      75      76
      77      86      88      89      90      91      92      93      75      76
      77      78      79      85      86      87      88      89      90      91
      92      93      76      77      86      88      90      91      92      77
      78      79      80      81      85      86      87      88      90      91
      92      78      79      80      81      82      85      86      87      90
      79      80      81      86      80      81      82      83      84      85
      86      81      82      85      82      83      84      85      86      87
      83      84      85      86      84      85      85      86      87      87
      90       0      89      90      91      92      93      94      95      96
      97      90      91      92      93      94      91      92      93      94
      92      93      93      94      95      96      97      98      95      96
      97      98      99     100     101      96      97      98      97      98
      98      99     100     101     102     103     121      99     100     101
     102     103     104     121     122     123     126     100     101     102
     103     121     101     102     103     121     102     103     104     105
     106     121     122     123     124     125     126     127     103     104
     121     122     123     126     104     105     106     107     120     121
     122     123     124     125     126     105     106     107     108     109
     110     119     120     121     122     123     124     125     126     106
     107     120     121     123     124     125     107     108     109     110
     111     115     119     120     121     123     124     125     108     109
     110     111     119     120     123     109     110     120     110     111
     112     113     119     120     111     112     113     114     115     119
     120     112     113     114     115     116     119     120     113     114
     115     120     114     115     116     117     118     119     120     115
     116     119     116     117     118     119     120     117     118     119
     120     118     119     119     120     123     122     123     124     125
     126     127     128     129     130     123     124     125     126     127
     124     125     126     127     125     126     126     127     128     129
     130     131     128     129     130     131     132     133     134     129
     130     131     130     131     131     132     133     134     135     136
     153     132     133     134     135     136     137     153     154     155
     158     133     134     135     136     153     134     135     136     153
     135     136     137     138     139     153     154     155     156     157
     158     159     136     137     153     154     155     158     137     138
     139     140     152     153     154     155     156     157     158     138
     139     140     141     142     143     151     152     153     154     155
     156     157     158     139     140     152     153     155     156     157
     140     141     142     143     144     149     151     152     153     155
     156     157     141     142     143     144     151     152     155     142
     143     152     143     144     145     148     151     152     144     145
     146     147     148     149     151     152     145     146     147     148
     149     150     151     152     146     147     148     149     152     147
     148     148     149     150     151     152     150     151     152     151
     152     152     155     154     155     156     157     158     159     160
     161     162     155     156     157     158     159     156     157     158
     159     157     158     158     159     160     161     162     163     160
     161     162     163     164     165     166     161     162     163     162
     163     163     164     165     166     167     168     185     164     165
     166     167     168     169     185     186     187     190     165     166
     167     168     185     166     167     168     185     167     168     169
     170     171     185     186     187     188     189     190     191     168
     169     185     186     187     190     169     170     171     172     184
     185     186     187     188     189     190     170     171     172     173
     174     175     183     184     185     186     187     188     189     190
     171     172     184     185     187     188     189     172     173     174
     175     176     181     183     184     185     187     188     189     173
     174     175     176     183     184     187     174     175     184     175
     176     177     180     183     184     176     177     178     179     180
     181     183     184     177     178     179     180     181     182     183
     184     178     179     180     181     184     179     180     180     181
     182     183     184     182     183     184     183     184     184     187
     186     187     188     189     190     191     192     193     194     187
     188     189     190     191     188     189     190     191     189     190
     190     191     192     193     194     195     192     193     194     195
     196     197     198     193     194     195     194     195     195     196
     197     198     199     200     217     196     197     198     199     200
     201     217     218     219     222     197     198     199     200     217
     198     199     200     217     199     200     201     202     203     217
     218     219     220     221     222     223     200     201     217     218
     219     222     201     202     203     204     215     217     218     219
     220     221     222     202     203     204     205     206     213     215
     216     217     218     219     220     221     222     203     204     215
     217     219     220     221     204     205     206     207     211     213
     214     215     216     217     219     220     221     205     206     207
     208     209     210     211     212     213     215     216     219     206
     207     211     215     207     208     209     210     211     212     213
     214     215     208     209     210     211     212     213     209     210
     211     210     211     211     212     213     214     215     216     213
     214     215     214     215     216     215     216     216     219       0
     218     219     220     221     222     223     224     225     226     219
     220     221     222     223     220     221     222     223     221     222
     222     223     224     225     226     227     224     225     226     227
     228     229     230     225     226     227     226     227     227     228
     229     230     231     232     249     228     229     230     231     232
     233     249     250     251     254     229     230     231     232     249
     230     231     232     249     231     232     233     234     235     249
     250     251     252     253     254     255     232     233     249     250
     251     254     233     234     235     236     247     249     250     251
     252     253     254     234     235     236     237     238     245     247
     248     249     250     251     252     253     254     235     236     247
     249     251     252     253     236     237     238     239     243     245
     246     247     248     249     251     252     253     237     238     239
     240     241     242     243     244     245     247     248     251     238
     239     243     247     239     240     241     242     243     244     245
     246     247     240     241     242     243     244     245     241     242
     243     242     243     243     244     245     246     247     248     245
     246     247     246     247     248     247     248     248     251       0
     250     251     252     253     254     255     256     257     258     251
     252     253     254     255     252     253     254     255     253     254
     254     255     256     257     258     259     256     257     258     259
     260     261     262     257     258     259     258     259     259     260
     261     262     263     264     279     260     261     262     263     264
     265     279     280     281     284     261     262     263     264     279
     262     263     264     279     263     264     265     266     267     279
     280     281     282     283     284     285     264     265     279     280
     281     284     265     266     267     268     277     279     280     281
     282     283     284     266     267     268     269     270     276     277
     278     279     280     281     282     283     284     267     268     277
     279     281     282     283     268     269     270     271     272     276
     277     278     279     281     282     283     269     270     271     272
     273     276     277     278     281     270     271     272     277     271
     272     273     274     275     276     277     272     273     276     273
     274     275     276     277     278     274     275     276     277     275
     276     276     277     278     278     281       0     280     281     282
     283     284     285     286     287     288     281     282     283     284
     285     282     283     284     285     283     284     284     285     286
     287     288     289     286     287     288     289     290     291     292
     287     288     289     288     289     289     290     291     292     293
     294     312     290     291     292     293     294     295     312     313
     314     317     291     292     293     294     312     292     293     294
     312     293     294     295     296     297     312     313     314     315
     316     317     318     294     295     312     313     314     317     295
     296     297     298     311     312     313     314     315     316     317
     296     297     298     299     300     301     310     311     312     313
     314     315     316     317     297     298     311     312     314     315
     316     298     299     300     301     302     306     310     311     312
     314     315     316     299     300     301     302     310     311     314
     300     301     311     301     302     303     304     310     311     302
     303     304     305     306     310     311     303     304     305     306
     307     310     311     304     305     306     311     305     306     307
     308     309     310     311     306     307     310     307     308     309
     310     311     308     309     310     311     309     310     310     311
     314     313     314     315     316     317     318     319     320     321
     314     315     316     317     318     315     316     317     318     316
     317     317     318     319     320     321     322     319     320     321
     322     323     324     325     320     321     322     321     322     322
     323     324     325     326     327     342     323     324     325     326
     327     328     342     343     344     347     324     325     326     327
     342     325     326     327     342     326     327     328     329     330
     342     343     344     345     346     347     348     327     328     342
     343     344     347     328     329     330     331     340     342     343
     344     345     346     347     329     330     331     332     333     339
     340     341     342     343     344     345     346     347     330     331
     340     342     344     345     346     331     332     333     334     335
     339     340     341     342     344     345     346     332     333     334
     335     336     339     340     341     344     333     334     335     340
     334     335     336     337     338     339     340     335     336     339
     336     337     338     339     340     341     337     338     339     340
     338     339     339     340     341     341     344       0     343     344
     345     346     347     348     349     350     351     344     345     346
     347     348     345     346     347     348     346     347     347     348
     349     350     351     352     349     350     351     352     353     354
     355     350     351     352     351     352     352     353     354     355
     356     357     375     353     354     355     356     357     358     375
     376     377     380     354     355     356     357     375     355     356
     357     375     356     357     358     359     360     375     376     377
     378     379     380     357     358     375     376     377     380     358
     359     360     361     374     375     376     377     378     379     380
     359     360     361     362     363     364     373     374     375     376
     377     378     379     380     360     361     374     375     377     378
     379     361     362     363     364     365     369     373     374     375
     377     378     379     362     363     364     365     373     374     377
     363     364     374     364     365     366     367     373     374     365
     366     367     368     369     373     374     366     367     368     369
     370     373     374     367     368     369     374     368     369     370
     371     372     373     374     369     370     373     370     371     372
     373     374     371     372     373     374     372     373     373     374
     377     376     377     378     379     380     377     378     379     380
     378     379     380     379     380     380       0     382     383     384
     385     386     387     388     383     384     385     384     385     385
     386     387     388     389     390     405     386     387     388     389
     390     391     405     406     407     410     387     388     389     390
     405     388     389     390     405     389     390     391     392     393
     405     406     407     408     409     410     411     390     391     405
     406     407     410     391     392     393     394     403     405     406
     407     408     409     410     392     393     394     395     396     402
     403     404     405     406     407     408     409     410     393     394
     403     405     407     408     409     394     395     396     397     398
     402     403     404     405     407     408     409     395     396     397
     398     399     402     403     404     407     396     397     398     403
     397     398     399     400     401     402     403     398     399     402
     399     400     401     402     403     404     400     401     402     403
     401     402     402     403     404     404     407       0     406     407
     408     409     410     411     412     413     414     407     408     409
     410     411     408     409     410     411     409     410     410     411
     412     413     414     415     412     413     414     415     416     417
     418     413     414     415     414     415     415     416     417     418
     419     420     438     416     417     418     419     420     421     438
     439     440     443     417     418     419     420     438     418     419
     420     438     419     420     421     422     423     438     439     440
     441     442     443     444     420     421     438     439     440     443
     421     422     423     424     437     438     439     440     441     442
     443     422     423     424     425     426     427     436     437     438
     439     440     441     442     443     423     424     437     438     440
     441     442     424     425     426     427     428     432     436     437
     438     440     441     442     425     426     427     428     436     437
     440     426     427     437     427     428     429     430     436     437
     428     429     430     431     432     436     437     429     430     431
     432     433     436     437     430     431     432     437     431     432
     433     434     435     436     437     432     433     436     433     434
     435     436     437     434     435     436     437     435     436     436
     437     440     439     440     441     442     443     444     445     446
     447     440     441     442     443     444     441     442     443     444
     442     443     443     444     445     446     447     448     445     446
     447     448     449     450     451     446     447     448     447     448
     448     449     450     451     452     453     468     449     450     451
     452     453     454     468     469     470     473     450     451     452
     453     468     451     452     453     468     452     453     454     455
     456     468     469     470     471     472     473     474     453     454
     468     469     470     473     454     455     456     457     466     468
     469     470     471     472     473     455     456     457     458     459
     465     466     467     468     469     470     471     472     473     456
     457     466     468     470     471     472     457     458     459     460
     461     465     466     467     468     470     471     472     458     459
     460     461     462     465     466     467     470     459     460     461
     466     460     461     462     463     464     465     466     461     462
     465     462     463     464     465     466     467     463     464     465
     466     464     465     465     466     467     467     470       0     469
     470     471     472     473     474     475     476     477     470     471
     472     473     474     471     472     473     474     472     473     473
     474     475     476     477     478     475     476     477     478     479
     480     481     476     477     478     477     478     478     479     480
     481     482     483     501     479     480     481     482     483     484
     501     502     503     506     480     481     482     483     501     481
     482     483     501     482     483     484     485     486     501     502
     503     504     505     506     507     483     484     501     502     503
     506     484     485     486     487     500     501     502     503     504
     505     506     485     486     487     488     489     490     499     500
     501     502     503     504     505     506     486     487     500     501
     503     504     505     487     488     489     490     491     495     499
     500     501     503     504     505     488     489     490     491     499
     500     503     489     490     500     490     491     492     493     499
     500     491     492     493     494     495     499     500     492     493
     494     495     496     499     500     493     494     495     500     494
     495     496     497     498     499     500     495     496     499     496
     497     498     499     500     497     498     499     500     498     499
     499     500     503     502     503     504     505     506     507     508
     509     510     503     504     505     506     507     504     505     506
     507     505     506     506     507     508     509     510     511     508
     509     510     511     512     513     514     509     510     511     510
     511     511     512     513     514     515     516     533     512     513
     514     515     516     517     533     534     535     538     513     514
     515     516     533     514     515     516     533     515     516     517
     518     519     533     534     535     536     537     538     539     516
     517     533     534     535     538     517     518     519     520     532
     533     534     535     536     537     538     518     519     520     521
     522     523     531     532     533     534     535     536     537     538
     519     520     532     533     535     536     537     520     521     522
     523     524     529     531     532     533     535     536     537     521
     522     523     524     531     532     535     522     523     532     523
     524     525     528     531     532     524     525     526     527     528
     529     531     532     525     526     527     528     529     530     531
     532     526     527     528     529     532     527     528     528     529
     530     531     532     530     531     532     531     532     532     535
     534     535     536     537     538     539     540     541     542     535
     536     537     538     539     536     537     538     539     537     538
     538     539     540     541     542     543     540     541     542     543
     544     545     546     541     542     543     542     543     543     544
     545     546     547     548     565     544     545     546     547     548
     549     565     566     567     570     545     546     547     548     565
     546     547     548     565     547     548     549     550     551     565
     566     567     568     569     570     571     548     549     565     566
     567     570     549     550     551     552     564     565     566     567
     568     569     570     550     551     552     553     554     555     563
     564     565     566     567     568     569     570     551     552     564
     565     567     568     569     552     553     554     555     556     561
     563     564     565     567     568     569     553     554     555     556
     563     564     567     554     555     564     555     556     557     560
     563     564     556     557     558     559     560     561     563     564
     557     558     559     560     561     562     563     564     558     559
     560     561     564     559     560     560     561     562     563     564
     562     563     564     563     564     564     567     566     567     568
     569     570     571     572     573     574     567     568     569     570
     571     568     569     570     571     569     570     570     571     572
     573     574     575     572     573     574     575     576     577     578
     573     574     575     574     575     575     576     577     578     579
     580     597     576     577     578     579     580     581     597     598
     599     602     577     578     579     580     597     578     579     580
     597     579     580     581     582     583     597     598     599     600
     601     602     603     580     581     597     598     599     602     581
     582     583     584     595     597     598     599     600     601     602
     582     583     584     585     586     593     595     596     597     598
     599     600     601     602     583     584     595     597     599     600
     601     584     585     586     587     591     593     594     595     596
     597     599     600     601     585     586     587     588     589     590
     591     592     593     595     596     599     586     587     591     595
     587     588     589     590     591     592     593     594     595     588
     589     590     591     592     593     589     590     591     590     591
     591     592     593     594     595     596     593     594     595     594
     595     596     595     596     596     599       0     598     599     600
     601     602     603     604     605     606     599     600     601     602
     603     600     601     602     603     601     602     602     603     604
     605     606     607     604     605     606     607     608     609     610
     605     606     607     606     607     607     608     609     610     611
     612     629     608     609     610     611     612     613     629     630
     631     634     609     610     611     612     629     610     611     612
     629     611     612     613     614     615     629     630     631     632
     633     634     635     612     613     629     630     631     634     613
     614     615     616     627     629     630     631     632     633     634
     614     615     616     617     618     625     627     628     629     630
     631     632     633     634     615     616     627     629     631     632
     633     616     617     618     619     623     625     626     627     628
     629     631     632     633     617     618     619     620     621     622
     623     624     625     627     628     631     618     619     623     627
     619     620     621     622     623     624     625     626     627     620
     621     622     623     624     625     621     622     623     622     623
     623     624     625     626     627     628     625     626     627     626
     627     628     627     628     628     631       0     630     631     632
     633     634     635     636     637     638     631     632     633     634
     635     632     633     634     635     633     634     634     635     636
     637     638     639     636     637     638     639     640     641     642
     637     638     639     638     639     639     640     641     642     643
     644     659     640     641     642     643     644     645     659     660
     661     664     641     642     643     644     659     642     643     644
     659     643     644     645     646     647     659     660     661     662
     663     664     665     644     645     659     660     661     664     645
     646     647     648     657     659     660     661     662     663     664
     646     647     648     649     650     656     657     658     659     660
     661     662     663     664     647     648     657     659     661     662
     663     648     649     650     651     652     656     657     658     659
     661     662     663     649     650     651     652     653     656     657
     658     661     650     651     652     657     651     652     653     654
     655     656     657     652     653     656     653     654     655     656
     657     658     654     655     656     657     655     656     656     657
     658     658     661       0     660     661     662     663     664     665
     666     667     668     661     662     663     664     665     662     663
     664     665     663     664     664     665     666     667     668     669
     666     667     668     669     670     671     672     667     668     669
     668     669     669     670     671     672     673     674     692     670
     671     672     673     674     675     692     693     694     697     671
     672     673     674     692     672     673     674     692     673     674
     675     676     677     692     693     694     695     696     697     698
     674     675     692     693     694     697     675     676     677     678
     691     692     693     694     695     696     697     676     677     678
     679     680     681     690     691     692     693     694     695     696
     697     677     678     691     692     694     695     696     678     679
     680     681     682     686     690     691     692     694     695     696
     679     680     681     682     690     691     694     680     681     691
     681     682     683     684     690     691     682     683     684     685
     686     690     691     683     684     685     686     687     690     691
     684     685     686     691     685     686     687     688     689     690
     691     686     687     690     687     688     689     690     691     688
     689     690     691     689     690     690     691     694     693     694
     695     696     697     698     699     700     701     694     695     696
     697     698     695     696     697     698     696     697     697     698
     699     700     701     702     699     700     701     702     703     704
     705     700     701     702     701     702     702     703     704     705
     706     707     722     703     704     705     706     707     708     722
     723     724     727     704     705     706     707     722     705     706
     707     722     706     707     708     709     710     722     723     724
     725     726     727     728     707     708     722     723     724     727
     708     709     710     711     720     722     723     724     725     726
     727     709     710     711     712     713     719     720     721     722
     723     724     725     726     727     710     711     720     722     724
     725     726     711     712     713     714     715     719     720     721
     722     724     725     726     712     713     714     715     716     719
     720     721     724     713     714     715     720     714     715     716
     717     718     719     720     715     716     719     716     717     718
     719     720     721     717     718     719     720     718     719     719
     720     721     721     724       0     723     724     725     726     727
     728     729     730     731     724     725     726     727     728     725
     726     727     728     726     727     727     728     729     730     731
     732     729     730     731     732     733     734     735     730     731
     732     731     732     732     733     734     735     736     737     755
     733     734     735     736     737     738     755     756     757     760
     734     735     736     737     755     735     736     737     755     736
     737     738     739     740     755     756     757     758     759     760
     737     738     755     756     757     760     738     739     740     741
     754     755     756     757     758     759     760     739     740     741
     742     743     744     753     754     755     756     757     758     759
     760     740     741     754     755     757     758     759     741     742
     743     744     745     749     753     754     755     757     758     759
     742     743     744     745     753     754     757     743     744     754
     744     745     746     747     753     754     745     746     747     748
     749     753     754     746     747     748     749     750     753     754
     747     748     749     754     748     749     750     751     752     753
     754     749     750     753     750     751     752     753     754     751
     752     753     754     752     753     753     754     757     756     757
     758     759     760     757     758     759     760     758     759     760
     759     760     760       0
%FLAG HBOND_ACOEF                                                               
%FORMAT(5E16.8)                                                                 

%FLAG HBOND_BCOEF                                                               
%FORMAT(5E16.8)                                                                 

%FLAG HBCUT                                                                     
%FORMAT(5E16.8)                                                                 

%FLAG AMBER_ATOM_TYPE                                                           
%FORMAT(20a4)                                                                   
P   O2  O2  OS  CI  H1  H1  CT  H1  OS  CT  H2  N*  CM  H4  CM  HA  CA  N2  H   
H   NC  C   O   CE  H1  CT  HC  HC  OS  P   O2  O2  OS  CI  H1  H1  CT  H1  OS  
CT  H2  N*  CK  H5  NB  CB  C   O   NA  H   CA  N2  H   H   NC  CB  CE  H1  CT  
HC  HC  OS  P   O2  O2  OS  CI  H1  H1  CT  H1  OS  CT  H2  N*  CM  H4  CM  HA  
CA  N2  H   H   NC  C   O   CE  H1  CT  HC  HC  OS  P   O2  O2  OS  CI  H1  H1  
CT  H1  OS  CT  H2  N*  CK  H5  NB  CB  C   O   NA  H   CA  N2  H   H   NC  CB  
CE  H1  CT  HC  HC  OS  P   O2  O2  OS  CI  H1  H1  CT  H1  OS  CT  H2  N*  C1  
H5  NB  CB  CA  N2  H   H   NC  CQ  H5  NC  CB  CE  H1  CT  HC  HC  OS  P   O2  
O2  OS  CI  H1  H1  CT  H1  OS  CT  H2  N*  C1  H5  NB  CB  CA  N2  H   H   NC  
CQ  H5  NC  CB  CE  H1  CT  HC  HC  OS  P   O2  O2  OS  CI  H1  H1  CT  H1  OS  
CT  H2  N*  C2  H4  C2  CT  HC  HC  HC  C   O   NA  H   C   O   CE  H1  CT  HC  
HC  OS  P   O2  O2  OS  CI  H1  H1  CT  H1  OS  CT  H2  N*  C2  H4  C2  CT  HC  
HC  HC  C   O   NA  H   C   O   CE  H1  CT  HC  HC  OS  P   O2  O2  OS  CI  H1  
H1  CT  H1  OS  CT  H2  N*  CM  H4  CM  HA  CA  N2  H   H   NC  C   O   CE  H1  
CT  HC  HC  OS  P   O2  O2  OS  CI  H1  H1  CT  H1  OS  CT  H2  N*  CK  H5  NB  
CB  C   O   NA  H   CA  N2  H   H   NC  CB  CE  H1  CT  HC  HC  OS  P   O2  O2  
OS  CI  H1  H1  CT  H1  OS  CT  H2  N*  CM  H4  CM  HA  CA  N2  H   H   NC  C   
O   CE  H1  CT  HC  HC  OS  P   O2  O2  OS  CI  H1  H1  CT  H1  OS  CT  H2  N*  
CK  H5  NB  CB  C   O   NA  H   CA  N2  H   H   NC  CB  CE  H1  CT  HC  HC  OS  
P   O2  O2  OS  CI  H1  H1  CT  H1  OS  CT  H2  N*  CM  H4  CM  HA  CA  N2  H   
H   NC  C   O   CE  H1  CT  HC  HC  OS  P   O2  O2  OS  CI  H1  H1  CT  H1  OS  
CT  H2  N*  CK  H5  NB  CB  C   O   NA  H   CA  N2  H   H   NC  CB  CE  H1  CT  
HC  HC  OS  P   O2  O2  OS  CI  H1  H1  CT  H1  OS  CT  H2  N*  CM  H4  CM  HA  
CA  N2  H   H   NC  C   O   CE  H1  CT  HC  HC  OS  P   O2  O2  OS  CI  H1  H1  
CT  H1  OS  CT  H2  N*  CK  H5  NB  CB  C   O   NA  H   CA  N2  H   H   NC  CB  
CE  H1  CT  HC  HC  OS  P   O2  O2  OS  CI  H1  H1  CT  H1  OS  CT  H2  N*  C1  
H5  NB  CB  CA  N2  H   H   NC  CQ  H5  NC  CB  CE  H1  CT  HC  HC  OS  P   O2  
O2  OS  CI  H1  H1  CT  H1  OS  CT  H2  N*  C1  H5  NB  CB  CA  N2  H   H   NC  
CQ  H5  NC  CB  CE  H1  CT  HC  HC  OS  P   O2  O2  OS  CI  H1  H1  CT  H1  OS  
CT  H2  N*  C2  H4  C2  CT  HC  HC  HC  C   O   NA  H   C   O   CE  H1  CT  HC  
HC  OS  P   O2  O2  OS  CI  H1  H1  CT  H1  OS  CT  H2  N*  C2  H4  C2  CT  HC  
HC  HC  C   O   NA  H   C   O   CE  H1  CT  HC  HC  OS  P   O2  O2  OS  CI  H1  
H1  CT  H1  OS  CT  H2  N*  CM  H4  CM  HA  CA  N2  H   H   NC  C   O   CE  H1  
CT  HC  HC  OS  P   O2  O2  OS  CI  H1  H1  CT  H1  OS  CT  H2  N*  CK  H5  NB  
CB  C   O   NA  H   CA  N2  H   H   NC  CB  CE  H1  CT  HC  HC  OS  P   O2  O2  
OS  CI  H1  H1  CT  H1  OS  CT  H2  N*  CM  H4  CM  HA  CA  N2  H   H   NC  C   
O   CE  H1  CT  HC  HC  OS  P   O2  O2  OS  CI  H1  H1  CT  H1  OS  CT  H2  N*  
CK  H5  NB  CB  C   O   NA  H   CA  N2  H   H   NC  CB  CE  H1  CT  HC  HC  OS  
%FLAG TREE_CHAIN_CLASSIFICATION                                                 
%FORMAT(20a4)                                                                   
M   E   E   M   M   E   E   M   E   S   3   E   B   S   E   S   E   B   B   E   
E   S   B   E   M   E   B   E   E   M   M   E   E   M   M   E   E   M   E   S   
3   E   B   S   E   E   B   B   E   B   E   S   B   E   E   E   B   M   E   B   
E   E   M   M   E   E   M   M   E   E   M   E   S   3   E   B   S   E   S   E   
B   B   E   E   S   B   E   M   E   B   E   E   M   M   E   E   M   M   E   E   
M   E   S   3   E   B   S   E   E   B   B   E   B   E   S   B   E   E   E   B   
M   E   B   E   E   M   M   E   E   M   M   E   E   M   E   S   3   E   B   S   
E   E   B   B   B   E   E   S   S   E   E   B   M   E   B   E   E   M   M   E   
E   M   M   E   E   M   E   S   3   E   B   S   E   E   B   B   B   E   E   S   
S   E   E   B   M   E   B   E   E   M   M   E   E   M   M   E   E   M   E   S   
3   E   B   S   E   S   3   E   E   E   B   E   B   E   B   E   M   E   B   E   
E   M   M   E   E   M   M   E   E   M   E   S   3   E   B   S   E   S   3   E   
E   E   B   E   B   E   B   E   M   E   B   E   E   M   M   E   E   M   M   E   
E   M   E   S   3   E   B   S   E   S   E   B   B   E   E   S   B   E   M   E   
B   E   E   M   M   E   E   M   M   E   E   M   E   S   3   E   B   S   E   E   
B   B   E   B   E   S   B   E   E   E   B   M   E   B   E   E   M   M   E   E   
M   M   E   E   M   E   S   3   E   B   S   E   S   E   B   B   E   E   S   B   
E   M   E   B   E   E   M   M   E   E   M   M   E   E   M   E   S   3   E   B   
S   E   E   B   B   E   B   E   S   B   E   E   E   B   M   E   B   E   E   M   
M   E   E   M   M   E   E   M   E   S   3   E   B   S   E   S   E   B   B   E   
E   S   B   E   M   E   B   E   E   M   M   E   E   M   M   E   E   M   E   S   
3   E   B   S   E   E   B   B   E   B   E   S   B   E   E   E   B   M   E   B   
E   E   M   M   E   E   M   M   E   E   M   E   S   3   E   B   S   E   S   E   
B   B   E   E   S   B   E   M   E   B   E   E   M   M   E   E   M   M   E   E   
M   E   S   3   E   B   S   E   E   B   B   E   B   E   S   B   E   E   E   B   
M   E   B   E   E   M   M   E   E   M   M   E   E   M   E   S   3   E   B   S   
E   E   B   B   B   E   E   S   S   E   E   B   M   E   B   E   E   M   M   E   
E   M   M   E   E   M   E   S   3   E   B   S   E   E   B   B   B   E   E   S   
S   E   E   B   M   E   B   E   E   M   M   E   E   M   M   E   E   M   E   S   
3   E   B   S   E   S   3   E   E   E   B   E   B   E   B   E   M   E   B   E   
E   M   M   E   E   M   M   E   E   M   E   S   3   E   B   S   E   S   3   E   
E   E   B   E   B   E   B   E   M   E   B   E   E   M   M   E   E   M   M   E   
E   M   E   S   3   E   B   S   E   S   E   B   B   E   E   S   B   E   M   E   
B   E   E   M   M   E   E   M   M   E   E   M   E   S   3   E   B   S   E   E   
B   B   E   B   E   S   B   E   E   E   B   M   E   B   E   E   M   M   E   E   
M   M   E   E   M   E   S   3   E   B   S   E   S   E   B   B   E   E   S   B   
E   M   E   B   E   E   M   M   E   E   M   M   E   E   M   E   S   3   E   B   
S   E   E   B   B   E   B   E   S   B   E   E   E   B   M   E   B   E   E   M   
%FLAG JOIN_ARRAY                                                                
%FORMAT(10I8)                                                                   
       0       0       0       0       0       0       0       0       0       0
       0       0       0       0       0       0       0       0       0       0
       0       0       0       0       0       0       0       0       0       0
       0       0       0       0       0       0       0       0       0       0
       0       0       0       0       0       0       0       0       0       0
       0       0       0       0       0       0       0       0       0       0
       0       0       0       0       0       0       0       0       0       0
       0       0       0       0       0       0       0       0       0       0
       0       0       0       0       0       0       0       0       0       0
       0       0       0       0       0       0       0       0       0       0
       0       0       0       0       0       0       0       0       0       0
       0       0       0       0       0       0       0       0       0       0
       0       0       0       0       0       0       0       0       0       0
       0       0       0       0       0       0       0       0       0       0
       0       0       0       0       0       0       0       0       0       0
       0       0       0       0       0       0       0       0       0       0
       0       0       0       0       0       0       0       0       0       0
       0       0       0       0       0       0       0       0       0       0
       0       0       0       0       0       0       0       0       0       0
       0       0       0       0       0       0       0       0       0       0
       0       0       0       0       0       0       0       0       0       0
       0       0       0       0       0       0       0       0       0       0
       0       0       0       0       0       0       0       0       0       0
       0       0       0       0       0       0       0       0       0       0
       0       0       0       0       0       0       0       0       0       0
       0       0       0       0       0       0       0       0       0       0
       0       0       0       0       0       0       0       0       0       0
       0       0       0       0       0       0       0       0       0       0
       0       0       0       0       0       0       0       0       0       0
       0       0       0       0       0       0       0       0       0       0
       0       0       0       0       0       0       0       0       0       0
       0       0       0       0       0       0       0       0       0       0
       0       0       0       0       0       0       0       0       0       0
       0       0       0       0       0       0       0       0       0       0
       0       0       0       0       0       0       0       0       0       0
       0       0       0       0       0       0       0       0       0       0
       0       0       0       0       0       0       0       0       0       0
       0       0       0       0       0       0       0       0       0       0
       0       0       0       0       0       0       0       0       0       0
       0       0       0       0       0       0       0       0       0       0
       0       0       0       0       0       0       0       0       0       0
       0       0       0       0       0       0       0       0       0       0
       0       0       0       0       0       0       0       0       0       0
       0       0       0       0       0       0       0       0       0       0
       0       0       0       0       0       0       0       0       0       0
       0       0       0       0       0       0       0       0       0       0
       0       0       0       0       0       0       0       0       0       0
       0       0       0       0       0       0       0       0       0       0
       0       0       0       0       0       0       0       0       0       0
       0       0       0       0       0       0       0       0       0       0
       0       0       0       0       0       0       0       0       0       0
       0       0       0       0       0       0       0       0       0       0
       0       0       0       0       0       0       0       0       0       0
       0       0       0       0       0       0       0       0       0       0
       0       0       0       0       0       0       0       0       0       0
       0       0       0       0       0       0       0       0       0       0
       0       0       0       0       0       0       0       0       0       0
       0       0       0       0       0       0       0       0       0       0
       0       0       0       0       0       0       0       0       0       0
       0       0       0       0       0       0       0       0       0       0
       0       0       0       0       0       0       0       0       0       0
       0       0       0       0       0       0       0       0       0       0
       0       0       0       0       0       0       0       0       0       0
       0       0       0       0       0       0       0       0       0       0
       0       0       0       0       0       0       0       0       0       0
       0       0       0       0       0       0       0       0       0       0
       0       0       0       0       0       0       0       0       0       0
       0       0       0       0       0       0       0       0       0       0
       0       0       0       0       0       0       0       0       0       0
       0       0       0       0       0       0       0       0       0       0
       0       0       0       0       0       0       0       0       0       0
       0       0       0       0       0       0       0       0       0       0
       0       0       0       0       0       0       0       0       0       0
       0       0       0       0       0       0       0       0       0       0
       0       0       0       0       0       0       0       0       0       0
       0       0       0       0       0       0       0       0       0       0
%FLAG IROTAT                                                                    
%FORMAT(10I8)                                                                   
       0       0       0       0       0       0       0       0       0       0
       0       0       0       0       0       0       0       0       0       0
       0       0       0       0       0       0       0       0       0       0
       0       0       0       0       0       0       0       0       0       0
       0       0       0       0       0       0       0       0       0       0
       0       0       0       0       0       0       0       0       0       0
       0       0       0       0       0       0       0       0       0       0
       0       0       0       0       0       0       0       0       0       0
       0       0       0       0       0       0       0       0       0       0
       0       0       0       0       0       0       0       0       0       0
       0       0       0       0       0       0       0       0       0       0
       0       0       0       0       0       0       0       0       0       0
       0       0       0       0       0       0       0       0       0       0
       0       0       0       0       0       0       0       0       0       0
       0       0       0       0       0       0       0       0       0       0
       0       0       0       0       0       0       0       0       0       0
       0       0       0       0       0       0       0       0       0       0
       0       0       0       0       0       0       0       0       0       0
       0       0       0       0       0       0       0       0       0       0
       0       0       0       0       0       0       0       0       0       0
       0       0       0       0       0       0       0       0       0       0
       0       0       0       0       0       0       0       0       0       0
       0       0       0       0       0       0       0       0       0       0
       0       0       0       0       0       0       0       0       0       0
       0       0       0       0       0       0       0       0       0       0
       0       0       0       0       0       0       0       0       0       0
       0       0       0       0       0       0       0       0       0       0
       0       0       0       0       0       0       0       0       0       0
       0       0       0       0       0       0       0       0       0       0
       0       0       0       0       0       0       0       0       0       0
       0       0       0       0       0       0       0       0       0       0
       0       0       0       0       0       0       0       0       0       0
       0       0       0       0       0       0       0       0       0       0
       0       0       0       0       0       0       0       0       0       0
       0       0       0       0       0       0       0       0       0       0
       0       0       0       0       0       0       0       0       0       0
       0       0       0       0       0       0       0       0       0       0
       0       0       0       0       0       0       0       0       0       0
       0       0       0       0       0       0       0       0       0       0
       0       0       0       0       0       0       0       0       0       0
       0       0       0       0       0       0       0       0       0       0
       0       0       0       0       0       0       0       0       0       0
       0       0       0       0       0       0       0       0       0       0
       0       0       0       0       0       0       0       0       0       0
       0       0       0       0       0       0       0       0       0       0
       0       0       0       0       0       0       0       0       0       0
       0       0       0       0       0       0       0       0       0       0
       0       0       0       0       0       0       0       0       0       0
       0       0       0       0       0       0       0       0       0       0
       0       0       0       0       0       0       0       0       0       0
       0       0       0       0       0       0       0       0       0       0
       0       0       0       0       0       0       0       0       0       0
       0       0       0       0       0       0       0       0       0       0
       0       0       0       0       0       0       0       0       0       0
       0       0       0       0       0       0       0       0       0       0
       0       0       0       0       0       0       0       0       0       0
       0       0       0       0       0       0       0       0       0       0
       0       0       0       0       0       0       0       0       0       0
       0       0       0       0       0       0       0       0       0       0
       0       0       0       0       0       0       0       0       0       0
       0       0       0       0       0       0       0       0       0       0
       0       0       0       0       0       0       0       0       0       0
       0       0       0       0       0       0       0       0       0       0
       0       0       0       0       0       0       0       0       0       0
       0       0       0       0       0       0       0       0       0       0
       0       0       0       0       0       0       0       0       0       0
       0       0       0       0       0       0       0       0       0       0
       0       0       0       0       0       0       0       0       0       0
       0       0       0       0       0       0       0       0       0       0
       0       0       0       0       0       0       0       0       0       0
       0       0       0       0       0       0       0       0       0       0
       0       0       0       0       0       0       0       0       0       0
       0       0       0       0       0       0       0       0       0       0
       0       0       0       0       0       0       0       0       0       0
       0       0       0       0       0       0       0       0       0       0
       0       0       0       0       0       0       0       0       0       0
%FLAG RADIUS_SET                                                                
%FORMAT(1a80)                                                                   
modified Bondi radii (mbondi)                                                   
%FLAG RADII                                                                     
%FORMAT(5E16.8)                                                                 
  1.85000000E+00  1.50000000E+00  1.50000000E+00  1.50000000E+00  1.70000000E+00
  1.30000000E+00  1.30000000E+00  1.70000000E+00  1.30000000E+00  1.50000000E+00
  1.70000000E+00  1.30000000E+00  1.55000000E+00  1.70000000E+00  1.30000000E+00
  1.70000000E+00  1.30000000E+00  1.70000000E+00  1.55000000E+00  1.30000000E+00
  1.30000000E+00  1.55000000E+00  1.70000000E+00  1.50000000E+00  1.70000000E+00
  1.30000000E+00  1.70000000E+00  1.30000000E+00  1.30000000E+00  1.50000000E+00
  1.85000000E+00  1.50000000E+00  1.50000000E+00  1.50000000E+00  1.70000000E+00
  1.30000000E+00  1.30000000E+00  1.70000000E+00  1.30000000E+00  1.50000000E+00
  1.70000000E+00  1.30000000E+00  1.55000000E+00  1.70000000E+00  1.30000000E+00
  1.55000000E+00  1.70000000E+00  1.70000000E+00  1.50000000E+00  1.55000000E+00
  1.30000000E+00  1.70000000E+00  1.55000000E+00  1.30000000E+00  1.30000000E+00
  1.55000000E+00  1.70000000E+00  1.70000000E+00  1.30000000E+00  1.70000000E+00
  1.30000000E+00  1.30000000E+00  1.50000000E+00  1.85000000E+00  1.50000000E+00
  1.50000000E+00  1.50000000E+00  1.70000000E+00  1.30000000E+00  1.30000000E+00
  1.70000000E+00  1.30000000E+00  1.50000000E+00  1.70000000E+00  1.30000000E+00
  1.55000000E+00  1.70000000E+00  1.30000000E+00  1.70000000E+00  1.30000000E+00
  1.70000000E+00  1.55000000E+00  1.30000000E+00  1.30000000E+00  1.55000000E+00
  1.70000000E+00  1.50000000E+00  1.70000000E+00  1.30000000E+00  1.70000000E+00
  1.30000000E+00  1.30000000E+00  1.50000000E+00  1.85000000E+00  1.50000000E+00
  1.50000000E+00  1.50000000E+00  1.70000000E+00  1.30000000E+00  1.30000000E+00
  1.70000000E+00  1.30000000E+00  1.50000000E+00  1.70000000E+00  1.30000000E+00
  1.55000000E+00  1.70000000E+00  1.30000000E+00  1.55000000E+00  1.70000000E+00
  1.70000000E+00  1.50000000E+00  1.55000000E+00  1.30000000E+00  1.70000000E+00
  1.55000000E+00  1.30000000E+00  1.30000000E+00  1.55000000E+00  1.70000000E+00
  1.70000000E+00  1.30000000E+00  1.70000000E+00  1.30000000E+00  1.30000000E+00
  1.50000000E+00  1.85000000E+00  1.50000000E+00  1.50000000E+00  1.50000000E+00
  1.70000000E+00  1.30000000E+00  1.30000000E+00  1.70000000E+00  1.30000000E+00
  1.50000000E+00  1.70000000E+00  1.30000000E+00  1.55000000E+00  1.70000000E+00
  1.30000000E+00  1.55000000E+00  1.70000000E+00  1.70000000E+00  1.55000000E+00
  1.30000000E+00  1.30000000E+00  1.55000000E+00  1.70000000E+00  1.30000000E+00
  1.55000000E+00  1.70000000E+00  1.70000000E+00  1.30000000E+00  1.70000000E+00
  1.30000000E+00  1.30000000E+00  1.50000000E+00  1.85000000E+00  1.50000000E+00
  1.50000000E+00  1.50000000E+00  1.70000000E+00  1.30000000E+00  1.30000000E+00
  1.70000000E+00  1.30000000E+00  1.50000000E+00  1.70000000E+00  1.30000000E+00
  1.55000000E+00  1.70000000E+00  1.30000000E+00  1.55000000E+00  1.70000000E+00
  1.70000000E+00  1.55000000E+00  1.30000000E+00  1.30000000E+00  1.55000000E+00
  1.70000000E+00  1.30000000E+00  1.55000000E+00  1.70000000E+00  1.70000000E+00
  1.30000000E+00  1.70000000E+00  1.30000000E+00  1.30000000E+00  1.50000000E+00
  1.85000000E+00  1.50000000E+00  1.50000000E+00  1.50000000E+00  1.70000000E+00
  1.30000000E+00  1.30000000E+00  1.70000000E+00  1.30000000E+00  1.50000000E+00
  1.70000000E+00  1.30000000E+00  1.55000000E+00  1.70000000E+00  1.30000000E+00
  1.70000000E+00  1.70000000E+00  1.30000000E+00  1.30000000E+00  1.30000000E+00
  1.70000000E+00  1.50000000E+00  1.55000000E+00  1.30000000E+00  1.70000000E+00
  1.50000000E+00  1.70000000E+00  1.30000000E+00  1.70000000E+00  1.30000000E+00
  1.30000000E+00  1.50000000E+00  1.85000000E+00  1.50000000E+00  1.50000000E+00
  1.50000000E+00  1.70000000E+00  1.30000000E+00  1.30000000E+00  1.70000000E+00
  1.30000000E+00  1.50000000E+00  1.70000000E+00  1.30000000E+00  1.55000000E+00
  1.70000000E+00  1.30000000E+00  1.70000000E+00  1.70000000E+00  1.30000000E+00
  1.30000000E+00  1.30000000E+00  1.70000000E+00  1.50000000E+00  1.55000000E+00
  1.30000000E+00  1.70000000E+00  1.50000000E+00  1.70000000E+00  1.30000000E+00
  1.70000000E+00  1.30000000E+00  1.30000000E+00  1.50000000E+00  1.85000000E+00
  1.50000000E+00  1.50000000E+00  1.50000000E+00  1.70000000E+00  1.30000000E+00
  1.30000000E+00  1.70000000E+00  1.30000000E+00  1.50000000E+00  1.70000000E+00
  1.30000000E+00  1.55000000E+00  1.70000000E+00  1.30000000E+00  1.70000000E+00
  1.30000000E+00  1.70000000E+00  1.55000000E+00  1.30000000E+00  1.30000000E+00
  1.55000000E+00  1.70000000E+00  1.50000000E+00  1.70000000E+00  1.30000000E+00
  1.70000000E+00  1.30000000E+00  1.30000000E+00  1.50000000E+00  1.85000000E+00
  1.50000000E+00  1.50000000E+00  1.50000000E+00  1.70000000E+00  1.30000000E+00
  1.30000000E+00  1.70000000E+00  1.30000000E+00  1.50000000E+00  1.70000000E+00
  1.30000000E+00  1.55000000E+00  1.70000000E+00  1.30000000E+00  1.55000000E+00
  1.70000000E+00  1.70000000E+00  1.50000000E+00  1.55000000E+00  1.30000000E+00
  1.70000000E+00  1.55000000E+00  1.30000000E+00  1.30000000E+00  1.55000000E+00
  1.70000000E+00  1.70000000E+00  1.30000000E+00  1.70000000E+00  1.30000000E+00
  1.30000000E+00  1.50000000E+00  1.85000000E+00  1.50000000E+00  1.50000000E+00
  1.50000000E+00  1.70000000E+00  1.30000000E+00  1.30000000E+00  1.70000000E+00
  1.30000000E+00  1.50000000E+00  1.70000000E+00  1.30000000E+00  1.55000000E+00
  1.70000000E+00  1.30000000E+00  1.70000000E+00  1.30000000E+00  1.70000000E+00
  1.55000000E+00  1.30000000E+00  1.30000000E+00  1.55000000E+00  1.70000000E+00
  1.50000000E+00  1.70000000E+00  1.30000000E+00  1.70000000E+00  1.30000000E+00
  1.30000000E+00  1.50000000E+00  1.85000000E+00  1.50000000E+00  1.50000000E+00
  1.50000000E+00  1.70000000E+00  1.30000000E+00  1.30000000E+00  1.70000000E+00
  1.30000000E+00  1.50000000E+00  1.70000000E+00  1.30000000E+00  1.55000000E+00
  1.70000000E+00  1.30000000E+00  1.55000000E+00  1.70000000E+00  1.70000000E+00
  1.50000000E+00  1.55000000E+00  1.30000000E+00  1.70000000E+00  1.55000000E+00
  1.30000000E+00  1.30000000E+00  1.55000000E+00  1.70000000E+00  1.70000000E+00
  1.30000000E+00  1.70000000E+00  1.30000000E+00  1.30000000E+00  1.50000000E+00
  1.85000000E+00  1.50000000E+00  1.50000000E+00  1.50000000E+00  1.70000000E+00
  1.30000000E+00  1.30000000E+00  1.70000000E+00  1.30000000E+00  1.50000000E+00
  1.70000000E+00  1.30000000E+00  1.55000000E+00  1.70000000E+00  1.30000000E+00
  1.70000000E+00  1.30000000E+00  1.70000000E+00  1.55000000E+00  1.30000000E+00
  1.30000000E+00  1.55000000E+00  1.70000000E+00  1.50000000E+00  1.70000000E+00
  1.30000000E+00  1.70000000E+00  1.30000000E+00  1.30000000E+00  1.50000000E+00
  1.85000000E+00  1.50000000E+00  1.50000000E+00  1.50000000E+00  1.70000000E+00
  1.30000000E+00  1.30000000E+00  1.70000000E+00  1.30000000E+00  1.50000000E+00
  1.70000000E+00  1.30000000E+00  1.55000000E+00  1.70000000E+00  1.30000000E+00
  1.55000000E+00  1.70000000E+00  1.70000000E+00  1.50000000E+00  1.55000000E+00
  1.30000000E+00  1.70000000E+00  1.55000000E+00  1.30000000E+00  1.30000000E+00
  1.55000000E+00  1.70000000E+00  1.70000000E+00  1.30000000E+00  1.70000000E+00
  1.30000000E+00  1.30000000E+00  1.50000000E+00  1.85000000E+00  1.50000000E+00
  1.50000000E+00  1.50000000E+00  1.70000000E+00  1.30000000E+00  1.30000000E+00
  1.70000000E+00  1.30000000E+00  1.50000000E+00  1.70000000E+00  1.30000000E+00
  1.55000000E+00  1.70000000E+00  1.30000000E+00  1.70000000E+00  1.30000000E+00
  1.70000000E+00  1.55000000E+00  1.30000000E+00  1.30000000E+00  1.55000000E+00
  1.70000000E+00  1.50000000E+00  1.70000000E+00  1.30000000E+00  1.70000000E+00
  1.30000000E+00  1.30000000E+00  1.50000000E+00  1.85000000E+00  1.50000000E+00
  1.50000000E+00  1.50000000E+00  1.70000000E+00  1.30000000E+00  1.30000000E+00
  1.70000000E+00  1.30000000E+00  1.50000000E+00  1.70000000E+00  1.30000000E+00
  1.55000000E+00  1.70000000E+00  1.30000000E+00  1.55000000E+00  1.70000000E+00
  1.70000000E+00  1.50000000E+00  1.55000000E+00  1.30000000E+00  1.70000000E+00
  1.55000000E+00  1.30000000E+00  1.30000000E+00  1.55000000E+00  1.70000000E+00
  1.70000000E+00  1.30000000E+00  1.70000000E+00  1.30000000E+00  1.30000000E+00
  1.50000000E+00  1.85000000E+00  1.50000000E+00  1.50000000E+00  1.50000000E+00
  1.70000000E+00  1.30000000E+00  1.30000000E+00  1.70000000E+00  1.30000000E+00
  1.50000000E+00  1.70000000E+00  1.30000000E+00  1.55000000E+00  1.70000000E+00
  1.30000000E+00  1.55000000E+00  1.70000000E+00  1.70000000E+00  1.55000000E+00
  1.30000000E+00  1.30000000E+00  1.55000000E+00  1.70000000E+00  1.30000000E+00
  1.55000000E+00  1.70000000E+00  1.70000000E+00  1.30000000E+00  1.70000000E+00
  1.30000000E+00  1.30000000E+00  1.50000000E+00  1.85000000E+00  1.50000000E+00
  1.50000000E+00  1.50000000E+00  1.70000000E+00  1.30000000E+00  1.30000000E+00
  1.70000000E+00  1.30000000E+00  1.50000000E+00  1.70000000E+00  1.30000000E+00
  1.55000000E+00  1.70000000E+00  1.30000000E+00  1.55000000E+00  1.70000000E+00
  1.70000000E+00  1.55000000E+00  1.30000000E+00  1.30000000E+00  1.55000000E+00
  1.70000000E+00  1.30000000E+00  1.55000000E+00  1.70000000E+00  1.70000000E+00
  1.30000000E+00  1.70000000E+00  1.30000000E+00  1.30000000E+00  1.50000000E+00
  1.85000000E+00  1.50000000E+00  1.50000000E+00  1.50000000E+00  1.70000000E+00
  1.30000000E+00  1.30000000E+00  1.70000000E+00  1.30000000E+00  1.50000000E+00
  1.70000000E+00  1.30000000E+00  1.55000000E+00  1.70000000E+00  1.30000000E+00
  1.70000000E+00  1.70000000E+00  1.30000000E+00  1.30000000E+00  1.30000000E+00
  1.70000000E+00  1.50000000E+00  1.55000000E+00  1.30000000E+00  1.70000000E+00
  1.50000000E+00  1.70000000E+00  1.30000000E+00  1.70000000E+00  1.30000000E+00
  1.30000000E+00  1.50000000E+00  1.85000000E+00  1.50000000E+00  1.50000000E+00
  1.50000000E+00  1.70000000E+00  1.30000000E+00  1.30000000E+00  1.70000000E+00
  1.30000000E+00  1.50000000E+00  1.70000000E+00  1.30000000E+00  1.55000000E+00
  1.70000000E+00  1.30000000E+00  1.70000000E+00  1.70000000E+00  1.30000000E+00
  1.30000000E+00  1.30000000E+00  1.70000000E+00  1.50000000E+00  1.55000000E+00
  1.30000000E+00  1.70000000E+00  1.50000000E+00  1.70000000E+00  1.30000000E+00
  1.70000000E+00  1.30000000E+00  1.30000000E+00  1.50000000E+00  1.85000000E+00
  1.50000000E+00  1.50000000E+00  1.50000000E+00  1.70000000E+00  1.30000000E+00
  1.30000000E+00  1.70000000E+00  1.30000000E+00  1.50000000E+00  1.70000000E+00
  1.30000000E+00  1.55000000E+00  1.70000000E+00  1.30000000E+00  1.70000000E+00
  1.30000000E+00  1.70000000E+00  1.55000000E+00  1.30000000E+00  1.30000000E+00
  1.55000000E+00  1.70000000E+00  1.50000000E+00  1.70000000E+00  1.30000000E+00
  1.70000000E+00  1.30000000E+00  1.30000000E+00  1.50000000E+00  1.85000000E+00
  1.50000000E+00  1.50000000E+00  1.50000000E+00  1.70000000E+00  1.30000000E+00
  1.30000000E+00  1.70000000E+00  1.30000000E+00  1.50000000E+00  1.70000000E+00
  1.30000000E+00  1.55000000E+00  1.70000000E+00  1.30000000E+00  1.55000000E+00
  1.70000000E+00  1.70000000E+00  1.50000000E+00  1.55000000E+00  1.30000000E+00
  1.70000000E+00  1.55000000E+00  1.30000000E+00  1.30000000E+00  1.55000000E+00
  1.70000000E+00  1.70000000E+00  1.30000000E+00  1.70000000E+00  1.30000000E+00
  1.30000000E+00  1.50000000E+00  1.85000000E+00  1.50000000E+00  1.50000000E+00
  1.50000000E+00  1.70000000E+00  1.30000000E+00  1.30000000E+00  1.70000000E+00
  1.30000000E+00  1.50000000E+00  1.70000000E+00  1.30000000E+00  1.55000000E+00
  1.70000000E+00  1.30000000E+00  1.70000000E+00  1.30000000E+00  1.70000000E+00
  1.55000000E+00  1.30000000E+00  1.30000000E+00  1.55000000E+00  1.70000000E+00
  1.50000000E+00  1.70000000E+00  1.30000000E+00  1.70000000E+00  1.30000000E+00
  1.30000000E+00  1.50000000E+00  1.85000000E+00  1.50000000E+00  1.50000000E+00
  1.50000000E+00  1.70000000E+00  1.30000000E+00  1.30000000E+00  1.70000000E+00
  1.30000000E+00  1.50000000E+00  1.70000000E+00  1.30000000E+00  1.55000000E+00
  1.70000000E+00  1.30000000E+00  1.55000000E+00  1.70000000E+00  1.70000000E+00
  1.50000000E+00  1.55000000E+00  1.30000000E+00  1.70000000E+00  1.55000000E+00
  1.30000000E+00  1.30000000E+00  1.55000000E+00  1.70000000E+00  1.70000000E+00
  1.30000000E+00  1.70000000E+00  1.30000000E+00  1.30000000E+00  1.50000000E+00
%FLAG SCREEN                                                                    
%FORMAT(5E16.8)                                                                 
  8.60000000E-01  8.50000000E-01  8.50000000E-01  8.50000000E-01  7.20000000E-01
  8.50000000E-01  8.50000000E-01  7.20000000E-01  8.50000000E-01  8.50000000E-01
  7.20000000E-01  8.50000000E-01  7.90000000E-01  7.20000000E-01  8.50000000E-01
  7.20000000E-01  8.50000000E-01  7.20000000E-01  7.90000000E-01  8.50000000E-01
  8.50000000E-01  7.90000000E-01  7.20000000E-01  8.50000000E-01  7.20000000E-01
  8.50000000E-01  7.20000000E-01  8.50000000E-01  8.50000000E-01  8.50000000E-01
  8.60000000E-01  8.50000000E-01  8.50000000E-01  8.50000000E-01  7.20000000E-01
  8.50000000E-01  8.50000000E-01  7.20000000E-01  8.50000000E-01  8.50000000E-01
  7.20000000E-01  8.50000000E-01  7.90000000E-01  7.20000000E-01  8.50000000E-01
  7.90000000E-01  7.20000000E-01  7.20000000E-01  8.50000000E-01  7.90000000E-01
  8.50000000E-01  7.20000000E-01  7.90000000E-01  8.50000000E-01  8.50000000E-01
  7.90000000E-01  7.20000000E-01  7.20000000E-01  8.50000000E-01  7.20000000E-01
  8.50000000E-01  8.50000000E-01  8.50000000E-01  8.60000000E-01  8.50000000E-01
  8.50000000E-01  8.50000000E-01  7.20000000E-01  8.50000000E-01  8.50000000E-01
  7.20000000E-01  8.50000000E-01  8.50000000E-01  7.20000000E-01  8.50000000E-01
  7.90000000E-01  7.20000000E-01  8.50000000E-01  7.20000000E-01  8.50000000E-01
  7.20000000E-01  7.90000000E-01  8.50000000E-01  8.50000000E-01  7.90000000E-01
  7.20000000E-01  8.50000000E-01  7.20000000E-01  8.50000000E-01  7.20000000E-01
  8.50000000E-01  8.50000000E-01  8.50000000E-01  8.60000000E-01  8.50000000E-01
  8.50000000E-01  8.50000000E-01  7.20000000E-01  8.50000000E-01  8.50000000E-01
  7.20000000E-01  8.50000000E-01  8.50000000E-01  7.20000000E-01  8.50000000E-01
  7.90000000E-01  7.20000000E-01  8.50000000E-01  7.90000000E-01  7.20000000E-01
  7.20000000E-01  8.50000000E-01  7.90000000E-01  8.50000000E-01  7.20000000E-01
  7.90000000E-01  8.50000000E-01  8.50000000E-01  7.90000000E-01  7.20000000E-01
  7.20000000E-01  8.50000000E-01  7.20000000E-01  8.50000000E-01  8.50000000E-01
  8.50000000E-01  8.60000000E-01  8.50000000E-01  8.50000000E-01  8.50000000E-01
  7.20000000E-01  8.50000000E-01  8.50000000E-01  7.20000000E-01  8.50000000E-01
  8.50000000E-01  7.20000000E-01  8.50000000E-01  7.90000000E-01  7.20000000E-01
  8.50000000E-01  7.90000000E-01  7.20000000E-01  7.20000000E-01  7.90000000E-01
  8.50000000E-01  8.50000000E-01  7.90000000E-01  7.20000000E-01  8.50000000E-01
  7.90000000E-01  7.20000000E-01  7.20000000E-01  8.50000000E-01  7.20000000E-01
  8.50000000E-01  8.50000000E-01  8.50000000E-01  8.60000000E-01  8.50000000E-01
  8.50000000E-01  8.50000000E-01  7.20000000E-01  8.50000000E-01  8.50000000E-01
  7.20000000E-01  8.50000000E-01  8.50000000E-01  7.20000000E-01  8.50000000E-01
  7.90000000E-01  7.20000000E-01  8.50000000E-01  7.90000000E-01  7.20000000E-01
  7.20000000E-01  7.90000000E-01  8.50000000E-01  8.50000000E-01  7.90000000E-01
  7.20000000E-01  8.50000000E-01  7.90000000E-01  7.20000000E-01  7.20000000E-01
  8.50000000E-01  7.20000000E-01  8.50000000E-01  8.50000000E-01  8.50000000E-01
  8.60000000E-01  8.50000000E-01  8.50000000E-01  8.50000000E-01  7.20000000E-01
  8.50000000E-01  8.50000000E-01  7.20000000E-01  8.50000000E-01  8.50000000E-01
  7.20000000E-01  8.50000000E-01  7.90000000E-01  7.20000000E-01  8.50000000E-01
  7.20000000E-01  7.20000000E-01  8.50000000E-01  8.50000000E-01  8.50000000E-01
  7.20000000E-01  8.50000000E-01  7.90000000E-01  8.50000000E-01  7.20000000E-01
  8.50000000E-01  7.20000000E-01  8.50000000E-01  7.20000000E-01  8.50000000E-01
  8.50000000E-01  8.50000000E-01  8.60000000E-01  8.50000000E-01  8.50000000E-01
  8.50000000E-01  7.20000000E-01  8.50000000E-01  8.50000000E-01  7.20000000E-01
  8.50000000E-01  8.50000000E-01  7.20000000E-01  8.50000000E-01  7.90000000E-01
  7.20000000E-01  8.50000000E-01  7.20000000E-01  7.20000000E-01  8.50000000E-01
  8.50000000E-01  8.50000000E-01  7.20000000E-01  8.50000000E-01  7.90000000E-01
  8.50000000E-01  7.20000000E-01  8.50000000E-01  7.20000000E-01  8.50000000E-01
  7.20000000E-01  8.50000000E-01  8.50000000E-01  8.50000000E-01  8.60000000E-01
  8.50000000E-01  8.50000000E-01  8.50000000E-01  7.20000000E-01  8.50000000E-01
  8.50000000E-01  7.20000000E-01  8.50000000E-01  8.50000000E-01  7.20000000E-01
  8.50000000E-01  7.90000000E-01  7.20000000E-01  8.50000000E-01  7.20000000E-01
  8.50000000E-01  7.20000000E-01  7.90000000E-01  8.50000000E-01  8.50000000E-01
  7.90000000E-01  7.20000000E-01  8.50000000E-01  7.20000000E-01  8.50000000E-01
  7.20000000E-01  8.50000000E-01  8.50000000E-01  8.50000000E-01  8.60000000E-01
  8.50000000E-01  8.50000000E-01  8.50000000E-01  7.20000000E-01  8.50000000E-01
  8.50000000E-01  7.20000000E-01  8.50000000E-01  8.50000000E-01  7.20000000E-01
  8.50000000E-01  7.90000000E-01  7.20000000E-01  8.50000000E-01  7.90000000E-01
  7.20000000E-01  7.20000000E-01  8.50000000E-01  7.90000000E-01  8.50000000E-01
  7.20000000E-01  7.90000000E-01  8.50000000E-01  8.50000000E-01  7.90000000E-01
  7.20000000E-01  7.20000000E-01  8.50000000E-01  7.20000000E-01  8.50000000E-01
  8.50000000E-01  8.50000000E-01  8.60000000E-01  8.50000000E-01  8.50000000E-01
  8.50000000E-01  7.20000000E-01  8.50000000E-01  8.50000000E-01  7.20000000E-01
  8.50000000E-01  8.50000000E-01  7.20000000E-01  8.50000000E-01  7.90000000E-01
  7.20000000E-01  8.50000000E-01  7.20000000E-01  8.50000000E-01  7.20000000E-01
  7.90000000E-01  8.50000000E-01  8.50000000E-01  7.90000000E-01  7.20000000E-01
  8.50000000E-01  7.20000000E-01  8.50000000E-01  7.20000000E-01  8.50000000E-01
  8.50000000E-01  8.50000000E-01  8.60000000E-01  8.50000000E-01  8.50000000E-01
  8.50000000E-01  7.20000000E-01  8.50000000E-01  8.50000000E-01  7.20000000E-01
  8.50000000E-01  8.50000000E-01  7.20000000E-01  8.50000000E-01  7.90000000E-01
  7.20000000E-01  8.50000000E-01  7.90000000E-01  7.20000000E-01  7.20000000E-01
  8.50000000E-01  7.90000000E-01  8.50000000E-01  7.20000000E-01  7.90000000E-01
  8.50000000E-01  8.50000000E-01  7.90000000E-01  7.20000000E-01  7.20000000E-01
  8.50000000E-01  7.20000000E-01  8.50000000E-01  8.50000000E-01  8.50000000E-01
  8.60000000E-01  8.50000000E-01  8.50000000E-01  8.50000000E-01  7.20000000E-01
  8.50000000E-01  8.50000000E-01  7.20000000E-01  8.50000000E-01  8.50000000E-01
  7.20000000E-01  8.50000000E-01  7.90000000E-01  7.20000000E-01  8.50000000E-01
  7.20000000E-01  8.50000000E-01  7.20000000E-01  7.90000000E-01  8.50000000E-01
  8.50000000E-01  7.90000000E-01  7.20000000E-01  8.50000000E-01  7.20000000E-01
  8.50000000E-01  7.20000000E-01  8.50000000E-01  8.50000000E-01  8.50000000E-01
  8.60000000E-01  8.50000000E-01  8.50000000E-01  8.50000000E-01  7.20000000E-01
  8.50000000E-01  8.50000000E-01  7.20000000E-01  8.50000000E-01  8.50000000E-01
  7.20000000E-01  8.50000000E-01  7.90000000E-01  7.20000000E-01  8.50000000E-01
  7.90000000E-01  7.20000000E-01  7.20000000E-01  8.50000000E-01  7.90000000E-01
  8.50000000E-01  7.20000000E-01  7.90000000E-01  8.50000000E-01  8.50000000E-01
  7.90000000E-01  7.20000000E-01  7.20000000E-01  8.50000000E-01  7.20000000E-01
  8.50000000E-01  8.50000000E-01  8.50000000E-01  8.60000000E-01  8.50000000E-01
  8.50000000E-01  8.50000000E-01  7.20000000E-01  8.50000000E-01  8.50000000E-01
  7.20000000E-01  8.50000000E-01  8.50000000E-01  7.20000000E-01  8.50000000E-01
  7.90000000E-01  7.20000000E-01  8.50000000E-01  7.20000000E-01  8.50000000E-01
  7.20000000E-01  7.90000000E-01  8.50000000E-01  8.50000000E-01  7.90000000E-01
  7.20000000E-01  8.50000000E-01  7.20000000E-01  8.50000000E-01  7.20000000E-01
  8.50000000E-01  8.50000000E-01  8.50000000E-01  8.60000000E-01  8.50000000E-01
  8.50000000E-01  8.50000000E-01  7.20000000E-01  8.50000000E-01  8.50000000E-01
  7.20000000E-01  8.50000000E-01  8.50000000E-01  7.20000000E-01  8.50000000E-01
  7.90000000E-01  7.20000000E-01  8.50000000E-01  7.90000000E-01  7.20000000E-01
  7.20000000E-01  8.50000000E-01  7.90000000E-01  8.50000000E-01  7.20000000E-01
  7.90000000E-01  8.50000000E-01  8.50000000E-01  7.90000000E-01  7.20000000E-01
  7.20000000E-01  8.50000000E-01  7.20000000E-01  8.50000000E-01  8.50000000E-01
  8.50000000E-01  8.60000000E-01  8.50000000E-01  8.50000000E-01  8.50000000E-01
  7.20000000E-01  8.50000000E-01  8.50000000E-01  7.20000000E-01  8.50000000E-01
  8.50000000E-01  7.20000000E-01  8.50000000E-01  7.90000000E-01  7.20000000E-01
  8.50000000E-01  7.90000000E-01  7.20000000E-01  7.20000000E-01  7.90000000E-01
  8.50000000E-01  8.50000000E-01  7.90000000E-01  7.20000000E-01  8.50000000E-01
  7.90000000E-01  7.20000000E-01  7.20000000E-01  8.50000000E-01  7.20000000E-01
  8.50000000E-01  8.50000000E-01  8.50000000E-01  8.60000000E-01  8.50000000E-01
  8.50000000E-01  8.50000000E-01  7.20000000E-01  8.50000000E-01  8.50000000E-01
  7.20000000E-01  8.50000000E-01  8.50000000E-01  7.20000000E-01  8.50000000E-01
  7.90000000E-01  7.20000000E-01  8.50000000E-01  7.90000000E-01  7.20000000E-01
  7.20000000E-01  7.90000000E-01  8.50000000E-01  8.50000000E-01  7.90000000E-01
  7.20000000E-01  8.50000000E-01  7.90000000E-01  7.20000000E-01  7.20000000E-01
  8.50000000E-01  7.20000000E-01  8.50000000E-01  8.50000000E-01  8.50000000E-01
  8.60000000E-01  8.50000000E-01  8.50000000E-01  8.50000000E-01  7.20000000E-01
  8.50000000E-01  8.50000000E-01  7.20000000E-01  8.50000000E-01  8.50000000E-01
  7.20000000E-01  8.50000000E-01  7.90000000E-01  7.20000000E-01  8.50000000E-01
  7.20000000E-01  7.20000000E-01  8.50000000E-01  8.50000000E-01  8.50000000E-01
  7.20000000E-01  8.50000000E-01  7.90000000E-01  8.50000000E-01  7.20000000E-01
  8.50000000E-01  7.20000000E-01  8.50000000E-01  7.20000000E-01  8.50000000E-01
  8.50000000E-01  8.50000000E-01  8.60000000E-01  8.50000000E-01  8.50000000E-01
  8.50000000E-01  7.20000000E-01  8.50000000E-01  8.50000000E-01  7.20000000E-01
  8.50000000E-01  8.50000000E-01  7.20000000E-01  8.50000000E-01  7.90000000E-01
  7.20000000E-01  8.50000000E-01  7.20000000E-01  7.20000000E-01  8.50000000E-01
  8.50000000E-01  8.50000000E-01  7.20000000E-01  8.50000000E-01  7.90000000E-01
  8.50000000E-01  7.20000000E-01  8.50000000E-01  7.20000000E-01  8.50000000E-01
  7.20000000E-01  8.50000000E-01  8.50000000E-01  8.50000000E-01  8.60000000E-01
  8.50000000E-01  8.50000000E-01  8.50000000E-01  7.20000000E-01  8.50000000E-01
  8.50000000E-01  7.20000000E-01  8.50000000E-01  8.50000000E-01  7.20000000E-01
  8.50000000E-01  7.90000000E-01  7.20000000E-01  8.50000000E-01  7.20000000E-01
  8.50000000E-01  7.20000000E-01  7.90000000E-01  8.50000000E-01  8.50000000E-01
  7.90000000E-01  7.20000000E-01  8.50000000E-01  7.20000000E-01  8.50000000E-01
  7.20000000E-01  8.50000000E-01  8.50000000E-01  8.50000000E-01  8.60000000E-01
  8.50000000E-01  8.50000000E-01  8.50000000E-01  7.20000000E-01  8.50000000E-01
  8.50000000E-01  7.20000000E-01  8.50000000E-01  8.50000000E-01  7.20000000E-01
  8.50000000E-01  7.90000000E-01  7.20000000E-01  8.50000000E-01  7.90000000E-01
  7.20000000E-01  7.20000000E-01  8.50000000E-01  7.90000000E-01  8.50000000E-01
  7.20000000E-01  7.90000000E-01  8.50000000E-01  8.50000000E-01  7.90000000E-01
  7.20000000E-01  7.20000000E-01  8.50000000E-01  7.20000000E-01  8.50000000E-01
  8.50000000E-01  8.50000000E-01  8.60000000E-01  8.50000000E-01  8.50000000E-01
  8.50000000E-01  7.20000000E-01  8.50000000E-01  8.50000000E-01  7.20000000E-01
  8.50000000E-01  8.50000000E-01  7.20000000E-01  8.50000000E-01  7.90000000E-01
  7.20000000E-01  8.50000000E-01  7.20000000E-01  8.50000000E-01  7.20000000E-01
  7.90000000E-01  8.50000000E-01  8.50000000E-01  7.90000000E-01  7.20000000E-01
  8.50000000E-01  7.20000000E-01  8.50000000E-01  7.20000000E-01  8.50000000E-01
  8.50000000E-01  8.50000000E-01  8.60000000E-01  8.50000000E-01  8.50000000E-01
  8.50000000E-01  7.20000000E-01  8.50000000E-01  8.50000000E-01  7.20000000E-01
  8.50000000E-01  8.50000000E-01  7.20000000E-01  8.50000000E-01  7.90000000E-01
  7.20000000E-01  8.50000000E-01  7.90000000E-01  7.20000000E-01  7.20000000E-01
  8.50000000E-01  7.90000000E-01  8.50000000E-01  7.20000000E-01  7.90000000E-01
  8.50000000E-01  8.50000000E-01  7.90000000E-01  7.20000000E-01  7.20000000E-01
  8.50000000E-01  7.20000000E-01  8.50000000E-01  8.50000000E-01  8.50000000E-01
%FLAG IPOL                                                                      
%FORMAT(1I8)                                                                    
       0
