default_name
  1231
  27.3400000  24.4300000   2.6140000  28.1909604  24.7959575   3.0165449
  27.4496416  24.3823350   1.6111006  27.0635255  23.6078492   3.1314258
  26.2660000  25.4130000   2.8420000  25.8918076  25.7364637   1.8706862
  25.1120000  24.8800000   3.6490000  24.2502843  25.5103579   3.4294682
  24.9184205  23.8660713   3.2988921  25.3530000  24.8600000   5.1340000
  26.2791623  24.3365349   5.3712940  25.3954300  25.8725109   5.5354017
  23.9300000  23.9590000   5.9040000  24.4470000  23.9840000   7.6200000
  24.5522134  25.0164430   7.9533027  23.6998187  23.4793646   8.2325063
  25.4038236  23.4714161   7.7192354  26.9130000  26.6390000   3.5310000
  27.8860000  26.4630000   4.2630000  26.3350000  27.7700000   3.2580000
  25.5995324  27.8516075   2.5705940  26.8500000  29.0210000   3.8980000
  27.8978198  28.9099927   4.1770165  26.7330000  30.1480000   2.9050000
  27.5006417  29.9477674   2.1575160  25.7477728  30.0275065   2.4545461
  26.8820000  31.5460000   3.4090000  26.0795897  31.7429221   4.1199572
  27.8446819  31.6689604   3.9052120  26.7860000  32.5620000   2.2700000
  27.7830000  33.1600000   1.8700000  25.5620000  32.7330000   1.8060000
  25.3974588  33.3847281   1.0521578  24.7957450  32.2113085   2.2069896
  26.1000000  29.2530000   5.2020000  24.8650000  29.0240000   5.3300000
  26.8490000  29.6560000   6.2170000  27.8568234  29.6259906   6.1579176
  26.2350000  30.0580000   7.4970000  25.1915930  30.3427722   7.3617012
  26.3440000  29.0500000   8.6450000  25.9625220  29.4953327   9.5638328
  25.4910000  27.7710000   8.2870000  25.8722043  27.3248198   7.3684647
  25.5623788  27.0471217   9.0987919  24.4485520  28.0566058   8.1461782
  27.8100000  28.7480000   8.9990000  28.2060466  28.0747812   8.2387209
  28.3609432  29.6881694   8.9736500  27.9670000  28.0870000  10.4170000
  27.4166696  27.1464885  10.4429699  29.0217554  27.8957598  10.6145283
  27.5715638  28.7598763  11.1778992  26.8820000  31.4280000   7.8620000
  27.9060000  31.7110000   7.2640000  26.2140000  32.0970000   8.7710000
  25.3470009  31.7858633   9.1852534  26.7720000  33.4360000   9.1970000
  27.6575439  33.6939115   8.6161447  25.6950000  34.4980000   8.9460000
  24.7992590  34.2201067   9.5014481  26.0202919  35.4912202   9.2555138
  25.2880000  34.6090000   7.4990000  24.1470000  33.9660000   7.0380000
  23.5123050  33.4120120   7.7296353  23.8120000  34.0310000   5.6770000
  22.9445022  33.5139547   5.2668628  24.6200000  34.7780000   4.8530000
  24.2852233  34.8788594   3.8205990  25.8100000  35.3920000   5.2670000
  26.4758704  35.8942993   4.5652792  26.1360000  35.3460000   6.6400000
  27.0185561  35.8689361   7.0084190  27.1510000  33.3620000  10.6500000
  26.3500000  32.7780000  11.3950000  28.2600000  33.9430000  11.0960000
  28.8909017  34.3828889  10.4413549  28.6050000  33.9650000  12.5030000
  27.8312105  33.4364998  13.0598092  29.9630000  33.3170000  12.8140000
  30.7552658  33.8478316  12.2861441  30.2110000  33.3940000  14.3040000
  29.4193344  32.8629574  14.8325455  31.1726956  32.9368319  14.5368937
  30.2199517  34.4377842  14.6179045  29.9570000  31.8380000  12.3520000
  29.7739213  31.7929045  11.2784309  30.9222216  31.3832735  12.5748692
  29.1706267  31.2959278  12.8772387  28.6380000  35.4610000  12.9000000
  29.5220000  36.1030000  12.3200000  27.7510000  35.8670000  13.7400000
  27.0656228  35.2336614  14.1263154  27.6910000  37.3150000  14.1430000
  28.1279290  37.9570976  13.3782105  26.2190000  37.6840000  14.3070000
  25.7440886  37.3925323  13.3701943  25.8520019  37.0484711  15.1129252
  25.8840000  39.1390000  14.6150000  26.2945441  39.4173223  15.5856138
  26.3017795  39.7874692  13.8449026  24.3480000  39.2960000  14.6420000
  23.9677564  38.8519948  13.7220146  23.9859840  38.7250691  15.4970332
  23.8650000  40.7230000  14.7490000  24.3209718  41.2030787  15.6148607
  24.1333139  41.2721587  13.8464860  22.3750000  40.7200000  14.9070000
  22.1261870  40.2115536  15.7434652  22.0422333  41.6708504  14.9794558
  21.9522698  40.2755732  14.1045768  28.4690000  37.4750000  15.4200000
  28.2130000  36.7530000  16.4110000  29.4260000  38.4300000  15.4460000
  29.6346115  38.9900254  14.6317813  30.2250000  38.6430000  16.6620000
  30.1472524  37.7372261  17.2633552  31.7440000  38.8790000  16.2990000
  32.3253102  38.7010055  17.2037081  32.2600000  37.9690000  15.1710000
  31.6794348  38.1467726  14.2657704  33.3099430  38.1888737  14.9776757
  32.1567357  36.9256836  15.4692078  31.7370000  40.2570000  15.8240000
  32.6269905  40.5126828  15.5707342  29.6640000  39.8390000  17.4340000
  28.8500000  40.5650000  16.8590000  30.1320000  40.0690000  18.6420000
  30.7721125  39.4155848  19.0702568  29.6070000  41.1800000  19.4670000
  28.5268122  41.2684317  19.3509250  29.9190000  40.8900000  20.9380000
  30.9920966  40.7002557  20.9616653  29.7000545  41.8046823  21.4889257
  29.1830000  39.7220000  21.5810000  29.6076878  38.7937730  21.1987230
  29.3080000  39.7500000  23.0950000  28.8830776  40.6777900  23.4780737
  28.7708465  38.9021854  23.5201792  30.3598775  39.6901407  23.3744118
  27.7000000  39.7210000  21.2280000  27.5833484  39.6440505  20.1469955
  27.2125672  38.8717773  21.7068855  27.2422023  40.6464564  21.5773575
  30.0750000  42.5380000  18.9840000  29.5860000  43.5700000  19.4830000
  30.9910000  42.5710000  17.9980000  31.4496479  41.7686227  17.5906524
  31.4220000  43.9400000  17.5530000  31.1344426  44.6914880  18.2883066
  32.9790000  43.9180000  17.4450000  33.3149280  44.9461430  17.3101864
  33.6570000  43.3190000  18.6720000  33.3218961  42.2906393  18.8072006
  34.7380813  43.3330796  18.5335652  33.3964814  43.9043854  19.5537906
  33.1740000  43.0670000  16.2650000  34.1131957  42.9735325  16.0895703
  30.7550000  44.3510000  16.2770000  31.2070000  45.2680000  15.5660000
  29.7210000  43.6730000  15.8850000  29.4199986  42.8991020  16.4599603
  28.9780000  43.9600000  14.6780000  28.0069863  43.4773868  14.7889783
  28.8441491  45.0412617  14.6454982  29.6040000  43.5070000  13.3930000
  29.2190000  43.9810000  12.3010000  30.5630000  42.6230000  13.4950000
  30.8664217  42.3289539  14.4123720  31.1910000  42.0120000  12.3310000
  31.0679560  42.6917238  11.4878305  32.6720000  41.7170000  12.5050000
  33.1862560  42.6517442  12.7283681  32.7908815  41.0285837  13.3416901
  33.2800000  41.0860000  11.2270000  32.7631772  40.1548595  10.9946805
  33.1763953  41.7769561  10.3903712  34.7620000  40.7990000  11.4700000
  35.1155931  41.5410928  12.1857997  34.8238833  39.8063683  11.9160407
  35.6140000  40.8470000  10.2400000  35.6982798  41.8963623   9.9574470
  36.5957583  40.4675817  10.5233579  35.1000000  40.0730000   9.1010000
  34.1904732  40.4246994   8.8380014  35.7341310  40.1619591   8.3199340
  35.0222335  39.1005381   9.3624754  30.4590000  40.6660000  12.1300000
  30.2530000  39.9910000  13.1330000  30.1630000  40.3380000  10.8860000
  30.3167114  40.9421042  10.0913112  29.5420000  39.0200000  10.6530000
  29.4849609  38.5047832  11.6118521  28.1130000  39.0490000  10.0150000
  28.1645643  39.6212651   9.0887419  27.5880000  37.6350000   9.7150000
  27.5357162  37.0622445  10.6409142  26.5937810  37.7021359   9.2732755
  28.2618680  37.1369836   9.0178758  27.2800000  39.7220000  10.9960000
  26.3794415  39.7761361  10.6678780  30.4940000  38.2610000   9.7290000
  30.8490000  38.8500000   8.7060000  30.7950000  37.0150000  10.0950000
  30.5893957  36.6007448  10.9928969  31.7200000  36.2890000   9.1760000
  31.9936216  36.7934062   8.2492828  32.9950000  35.8830000   9.9340000
  33.8280488  36.2815523   9.3549610  33.1090000  36.3810000  11.4350000
  32.2764881  35.9824455  12.0148093  34.0489585  36.0330689  11.8633954
  33.0800333  37.4703247  11.4601335  33.3060000  34.3810000   9.8400000
  32.4393724  33.8159716  10.1832206  33.5175665  34.1256820   8.8016591
  34.5350000  34.0280000  10.7200000  34.3239958  34.2826254  11.7586255
  34.7430600  32.9608065  10.6431345  35.4021898  34.5923380  10.3770651
  30.9550000  35.2110000   8.4590000  30.0250000  34.6180000   9.0400000
  31.2440000  34.9860000   7.1970000  31.9110204  35.5214055   6.6598556
  30.5050000  33.8840000   6.5120000  29.5998507  33.6887345   7.0870438
  30.0910000  34.3930000   5.0780000  29.4056023  33.6637243   4.6461584
  29.4200000  35.7560000   5.1190000  30.1050058  36.4859498   5.5503236
  29.1544803  36.0614289   4.1069172  28.5185780  35.6995766   5.7292093
  31.4400000  34.5130000   4.4870000  31.3662120  34.8233111   3.5815373
  31.4090000  32.6800000   6.4460000  32.6190000  32.8120000   6.1250000
  30.8840000  31.4850000   6.6660000  29.8845848  31.3999633   6.7844792
  31.6770000  30.2750000   6.6390000  32.7280785  30.4735254   6.4294270
  31.5620000  29.6860000   8.0450000  30.8694495  30.4396967   8.4197189
  31.0218644  28.7578508   7.8582044  32.6310000  29.4440000   9.0600000
  32.9773500  28.4240980   8.8928397  33.8140000  30.3900000   9.0300000
  33.4684720  31.4101141   9.1975601  34.5210332  30.1133467   9.8120919
  34.3048259  30.3281166   8.0587324  31.9450000  29.4490000  10.4360000
  31.1929452  28.6607594  10.4704929  32.6885369  29.2753490  11.2138814
  31.4664999  30.4144411  10.6004999  31.0220000  29.2880000   5.6650000
  29.8090000  29.3950000   5.5450000  31.8340000  28.4120000   5.1250000
  32.8395854  28.4325475   5.2170607  31.2200000  27.3410000   4.2750000
  30.1540921  27.5461552   4.1757485  31.8270000  27.2620000   2.8940000
  32.9106086  27.3003060   3.0054644  31.5405300  26.3039256   2.4602622
  31.3630000  28.4100000   1.9620000  30.2861628  28.5077660   2.0997111
  31.8620277  29.2900636   2.3676583  31.6710000  28.2910000   0.4980000
  30.8690000  28.6210000  -0.3660000  32.8350000  27.8610000   0.2780000
  31.4400000  26.0790000   5.0800000  32.5760000  25.8020000   5.4610000
  30.3100000  25.4580000   5.3840000  29.4301296  25.8336597   5.0602607
  30.2880000  24.2450000   6.1930000  31.2128544  23.6682150   6.2009149
  29.9030000  24.5900000   7.6650000  29.8300088  23.6404570   8.1952259
  30.8620000  25.4960000   8.3890000  30.9351685  26.4459821   7.8595840
  30.5013858  25.6722447   9.4024080  31.8450461  25.0269280   8.4301505
  28.4760000  25.1350000   7.7050000  27.7884791  24.3834699   7.3169025
  28.2072409  25.3759640   8.7334963  28.4129156  26.0348814   7.0931710
  29.2790000  23.2270000   5.6410000  28.4780000  23.5220000   4.7250000
  29.3800000  22.0570000   6.2320000  30.1029457  21.9374421   6.9270934
  28.4680000  20.9400000   5.9800000  27.7507244  21.2301168   5.2122454
  29.2130000  19.6970000   5.5060000  30.0540705  19.5606400   6.1857835
  28.5216425  18.8609965   5.6119385  29.7280000  19.7550000   4.0600000
  30.4977501  20.5263552   4.0844308  30.1906105  18.7867119   3.8689270
  28.7540000  20.0610000   2.9780000  27.5460000  19.9920000   2.9850000
  29.3360000  20.4230000   1.9040000  27.8190000  20.6090000   7.3160000
  28.4490000  20.6740000   8.3600000  26.5590000  20.2200000   7.2880000
  25.7140000  20.1080000   6.0730000  25.9194614  19.1772917   5.5441637
  25.8862144  20.9510916   5.4039427  24.2990000  20.1340000   6.7040000
  23.5665929  19.6805276   6.0361364  23.9954275  21.1548675   6.9358936
  24.4690000  19.3320000   7.9520000  24.5307690  18.2721371   7.7050704
  23.6924078  19.4852908   8.7013371  25.8290000  19.8250000   8.4940000
  25.7261149  20.7015963   9.1336029  26.5410000  18.7320000   9.2510000
  26.3330000  18.5360000  10.4570000  27.3610000  17.9590000   8.5590000
  27.5242517  18.1168230   7.5748556  28.0540000  16.8350000   9.2100000
  27.3753921  16.3394696   9.9042911  28.5230000  15.8200000   8.1820000
  29.3539759  15.2596689   8.6104943  27.6969931  15.1404203   7.9722761
  28.9460000  16.4450000   6.9670000  29.2339841  15.7729647   6.3448798
  29.2580000  17.3180000   9.9840000  29.9300000  16.4770000  10.6060000
  29.5990000  18.5990000   9.8280000  29.0883757  19.2586996   9.2586507
  30.7960000  19.0830000  10.5660000  31.6483712  18.4260839  10.3927261
  31.1550000  20.5150000  10.0480000  30.3014688  21.1813408   9.9232054
  31.8048888  20.9010420  10.8333128  31.9230000  20.4360000   8.7550000
  32.4930000  19.3740000   8.4560000  31.8380000  21.4020000   7.9680000
  30.4910000  19.1620000  12.0400000  29.3670000  19.5230000  12.4410000
  31.5100000  18.9360000  12.8520000  32.4013548  18.6622463  12.4638700
  31.3980000  19.0640000  14.2860000  30.4158133  18.7275742  14.6180031
  32.4920000  18.1930000  14.9950000  32.3849640  18.3148530  16.0728661
  32.3520000  16.7000000  14.6300000  32.4593928  16.5772917  13.5522667
  33.1265669  16.1267158  15.1394020  31.3710208  16.3400406  14.9401768
  33.7780000  18.7390000  14.5160000  34.5015610  18.2487714  14.9131596
  31.5930000  20.5530000  14.6550000  32.1590000  21.3110000  13.8610000
  31.1130000  20.8630000  15.8600000  30.5696420  20.1929688  16.3852805
  31.2880000  22.2010000  16.4170000  30.9368367  22.9803583  15.7406981
  30.5200000  22.3000000  17.7640000  30.8541579  21.5283347  18.4575211
  30.8320000  23.6990000  18.3580000  30.4976841  24.4712450  17.6652005
  30.3118879  23.8147914  19.3088820  31.9059236  23.7951787  18.5178028
  29.0060000  22.0430000  17.4420000  28.9276396  21.0026617  17.1263157
  28.4618239  22.1805944  18.3763659  28.4070000  22.9480000  16.3660000
  28.9503993  22.8106087  15.4311521  27.3581871  22.6912386  16.2171235
  28.4845859  23.9885423  16.6812016  32.7760000  22.5190000  16.5770000
  33.2330000  23.6590000  16.3840000  33.5480000  21.5260000  16.9500000
  33.1675113  20.6134926  17.1565381  35.0310000  21.7220000  17.0690000
  35.2644324  22.4501150  17.8458250  35.6670000  20.3830000  17.4470000
  35.0308670  20.0221229  18.2552090  35.5086381  19.7703515  16.5594848
  37.1280000  20.2930000  17.8720000  37.7028341  20.7294261  17.0551776
  37.3051126  20.8618796  18.7847466  37.5610000  18.8510000  18.0820000
  37.7580000  18.0240000  17.1950000  37.6280000  18.5990000  19.3130000
  35.6150000  22.1900000  15.7590000  36.5320000  23.0460000  15.7240000
  35.1390000  21.6240000  14.6620000  34.4798227  20.8682316  14.7819950
  35.5900000  21.9450000  13.3020000  36.6796573  21.9263461  13.2820440
  35.0640000  20.9570000  12.2550000  35.4559775  19.9575273  12.4434333
  33.9744577  20.9254160  12.2552180  35.5410000  21.4180000  10.8710000
  36.7720000  21.6230000  10.6760000  34.6280000  21.5950000   9.9200000
  34.9138563  21.8979581   8.9998900  33.6530854  21.4256257  10.1223726
  35.2380000  23.3820000  12.9200000  36.0660000  24.1090000  12.3330000
  34.0070000  23.7450000  13.2500000  33.3507590  23.0732537  13.6217579
  33.5330000  25.0970000  12.9780000  33.6548667  25.3968315  11.9371596
  32.0600000  25.2570000  13.3640000  31.9004608  24.8570856  14.3653566
  31.6840000  26.7490000  13.3420000  31.8428472  27.1495331  12.3407799
  30.6354705  26.8640752  13.6166710  32.3069692  27.2917430  14.0529438
  31.1520000  24.4210000  12.4770000  31.4187839  23.3684698  12.5724391
  30.1151486  24.5616158  12.7823949  31.2699735  24.7325242  11.4391485
  34.4410000  26.0990000  13.6840000  34.8830000  27.0900000  13.0930000
  34.7340000  25.8220000  14.9490000  34.3452027  25.0083679  15.4039052
  35.5960000  26.7150000  15.7360000  35.1706524  27.7183401  15.7580750
  35.7150000  26.2030000  17.1720000  35.9423883  25.1369825  17.1713759
  36.5036534  26.7418941  17.6970896  34.3430000  26.4450000  17.8980000
  34.0560507  27.4934905  17.8178216  33.5678022  25.8215945  17.4524261
  34.5090000  26.0770000  19.3600000  34.7876327  25.0256421  19.4314800
  35.2981877  26.6917321  19.7928819  33.2060000  26.3110000  20.1220000
  32.9204945  27.3623097  20.0854602  32.4019671  25.7021125  19.7086160
  33.4550000  25.9100000  21.5460000  34.1997111  26.4743855  21.9293721
  32.6137645  26.0499052  22.0871556  33.7191541  24.9357529  21.5801215
  36.9750000  26.8260000  15.1070000  37.5790000  27.9260000  15.1590000
  37.4990000  25.7430000  14.5710000  37.0281569  24.8564739  14.6827032
  38.7940000  25.7610000  13.8800000  39.5136907  26.2388240  14.5447019
  39.2850000  24.3360000  13.5660000  38.5792241  23.8477945  12.8939615
  40.2644042  24.3852165  13.0901373  39.3594865  23.7646735  14.4912767
  38.7280000  26.5910000  12.6110000  39.7040000  27.3460000  12.2770000
  37.6330000  26.5430000  11.8670000  36.8901792  25.9006913  12.1031273
  37.4710000  27.3910000  10.6680000  38.3203216  27.2365219  10.0025013
  36.1930000  27.0580000   9.9110000  35.3545734  27.2304469  10.5858349
  36.1232026  27.7403711   9.0638884  36.1530000  25.6200000   9.4090000
  36.8732977  25.5038003   8.5992039  36.4148513  24.9484236  10.2266314
  34.7580000  25.2800000   8.9000000  34.1818333  24.8759174   9.7323750
  34.2911230  26.2000418   8.5483632  34.7930000  24.2640000   7.7670000
  35.6471873  23.6033995   7.9155650  33.8734170  23.6793565   7.7926576
  34.9140000  24.9440000   6.4410000  35.7662580  25.4854548   6.4168608
  34.9351092  24.2500357   5.7074689  34.1223691  25.5558520   6.3029538
  37.4410000  28.8820000  11.0520000  38.0200000  29.7720000  10.3820000
  36.8110000  29.1700000  12.1920000  36.3456186  28.4616485  12.7413247
  36.7310000  30.5700000  12.6450000  36.4732526  31.2257534  11.8133433
  35.7080000  30.7760000  13.8060000  35.8554312  29.9725752  14.5277153
  35.8740000  32.1380000  14.5120000  35.7262426  32.9419791  13.7909688
  35.1368667  32.2263745  15.3100760  36.8763181  32.2091179  14.9343740
  34.2280000  30.6300000  13.3190000  33.9489802  31.5079062  12.7363085
  34.1359291  29.7385094  12.6986235  33.2840000  30.5040000  14.5520000
  33.3751810  31.3953916  15.1726504  32.2533051  30.4023346  14.2122481
  33.5621317  29.6259954  15.1349670  38.1480000  30.9810000  13.0690000
  38.5440000  32.1500000  12.8560000  38.8830000  30.1100000  13.7130000
  38.5713729  29.1742764  13.9307366  40.2690000  30.5080000  14.1150000
  40.2108000  31.3846334  14.7601557  40.9960000  29.3990000  14.8650000
  40.4701278  29.1858230  15.7956521  41.0209800  28.5005301  14.2483738
  42.4450000  29.8480000  15.1820000  43.0063650  29.8840419  14.2483667
  42.4841826  30.8234696  15.6667946  43.0900000  28.8280000  16.0950000
  42.7700000  27.6550000  15.9060000  43.8980000  29.2520000  17.0500000
  44.3372218  28.5853003  17.6686253  44.0728834  30.2409515  17.1572015
  41.0920000  30.8080000  12.8510000  41.8280000  31.8080000  12.6810000
  41.0010000  29.8780000  11.9310000  40.5256177  29.0070620  12.1196214
  41.7180000  30.0220000  10.6430000  42.7967340  30.0741175  10.7903630
  41.3980000  28.7800000   9.8100000  41.2980332  27.9502589  10.5097397
  40.5071219  28.8364502   9.1845005  42.6260000  28.5570000   8.9280000
  43.6660000  28.2620000   9.5390000  42.4300000  28.8120000   7.7280000
  41.3990000  31.3380000   9.9670000  42.2600000  32.0360000   9.3810000
  40.1170000  31.7500000   9.9880000  39.3499175  31.1518572  10.2598622
  39.8080000  32.9940000   9.2330000  40.6694752  33.2728517   8.6262040
  38.6150000  32.8010000   8.3200000  38.7449137  33.5922107   7.5816185
  38.8184900  31.8355145   7.8568266  37.2200000  32.8220000   8.8270000
  36.8397351  31.8039192   8.9107310  37.1871441  33.3031110   9.8045248
  36.3510000  33.6130000   7.8380000  35.3376291  33.6723905   8.2350531
  36.7617257  34.6178832   7.7399514  36.3220000  32.9440000   6.4770000
  37.3278434  32.6532505   6.1739416  35.6808212  32.0628116   6.4992667
  35.7680000  33.9450000   5.4890000  36.3622246  34.7614261   5.4678983
  35.7358405  33.5281297   4.5696062  34.8358025  34.2142227   5.7694034
  39.8370000  34.2710000   9.9950000  40.1640000  35.3230000   9.3450000
  39.6550000  34.3350000  11.2850000  39.4755102  33.4604563  11.7572880
  39.6760000  35.5470000  12.0720000  39.9404679  36.3929822  11.4375948
  38.2900000  35.8140000  12.6980000  38.0704099  34.9692422  13.3508888
  38.3830879  36.7203524  13.2962975  37.1560000  35.9850000  11.6880000
  37.2482969  35.2155030  10.9215429  36.2110933  35.8590993  12.2165825
  37.1920000  37.3610000  11.0330000  37.5190000  38.3600000  11.6450000
  36.8610000  37.3200000   9.8220000  40.6750000  35.5270000  13.2000000
  40.8140000  36.5280000  13.9110000  41.3170000  34.3930000  13.4320000
  41.0783059  33.5770414  12.8867146  42.3450000  34.2690000  14.4310000
  42.9496145  33.4196619  14.1129350  42.9325675  35.1834431  14.3494054
  41.9490000  34.0760000  15.8420000  42.8290000  34.0000000  16.7390000
  40.6420000  33.9160000  16.1120000  39.9270157  33.9476156  15.3993309
  40.2260000  33.7160000  17.5090000  40.7876647  34.2856889  18.2493287
  38.6930000  34.1060000  17.5950000  38.1343484  33.4654209  16.9126019
  38.1460000  33.9320000  19.0270000  38.7038919  34.5726594  19.7099442
  37.0918434  34.2082796  19.0498934  38.2552460  32.8919513  19.3343487
  38.4710000  35.5460000  17.0450000  38.7601981  36.2719116  17.8049458
  39.0817054  35.6908486  16.1538450  36.9580000  35.7460000  16.6800000
  36.3466629  35.6017561  17.5708201  36.8067106  36.7546717  16.2955625
  36.6681696  35.0206910  15.9197204  40.4490000  32.2780000  17.9450000
  39.9360000  31.3360000  17.3150000  41.1890000  32.0850000  19.0310000
  41.8220000  33.1880000  19.8130000  41.1011425  33.6490895  20.4881749
  42.2347414  33.9476484  19.1491642  42.9040000  32.4140000  20.5530000
  43.2374833  32.9491441  21.4421056  43.7595124  32.2134346  19.9080400
  42.1950000  31.1420000  20.9130000  41.4653224  31.3991830  21.6808063
  42.8072741  30.3091388  21.2587778  41.4610000  30.7510000  19.5940000
  42.0290961  30.1718501  18.8660230  40.1680000  30.0260000  19.9180000
  39.2640000  30.6620000  20.5210000  40.0590000  28.7580000  19.6070000
  41.0350000  27.9090000  18.8790000  41.7238412  27.4280488  19.5734667
  41.6001555  28.4997626  18.1580993  40.0820000  26.9040000  18.1980000
  40.6001305  25.9947702  17.8931376  39.5794208  27.3417442  17.3355063
  39.0900000  26.6290000  19.3250000  39.4970817  25.9861071  20.1054308
  38.1662035  26.1949163  18.9425461  38.8170000  28.0200000  19.8890000
  38.0255940  28.4683703  19.2883846  38.4210000  28.0480000  21.3410000
  37.2130000  28.0360000  21.7040000  39.3740000  28.0900000  22.2400000
  40.3390510  28.0032913  21.9549430  39.0630000  28.0630000  23.6950000
  38.2967586  27.3182811  23.9103302  40.3400000  27.6920000  24.4680000
  40.2761805  26.6531457  24.7917408  41.1744382  27.8057638  23.7759951
  40.5590000  28.5850000  25.6750000  40.7160000  29.8090000  25.4560000
  40.5490000  28.0900000  26.8400000  38.3650000  29.3350000  24.1590000
  37.6840000  29.3900000  25.2210000  38.4190000  30.3730000  23.3410000
  38.8849735  30.3249202  22.4462060  37.7380000  31.6370000  23.7120000
  37.6674146  31.7132539  24.7970356  38.5280000  32.8540000  23.1820000
  38.6382715  32.7850746  22.0997853  38.0064253  33.7769293  23.4354983
  39.9190000  32.8540000  23.8400000  39.8128109  32.8914145  24.9241701
  40.4322320  31.9349073  23.5572217  40.7600000  34.0360000  23.3940000
  41.9750000  34.0080000  23.6240000  40.1400000  35.0070000  22.7750000
  40.6594090  35.8138988  22.4599919  39.1446773  34.9454440  22.6148595
  36.3340000  31.7420000  23.0870000  35.5740000  32.6180000  23.4830000
  36.0000000  30.8600000  22.1720000  36.6824259  30.1618342  21.9132360
  34.7380000  30.8750000  21.4730000  34.3968699  31.9037281  21.3570345
  34.8760000  30.2370000  20.0660000  35.0682423  29.1730897  20.2046978
  33.9250692  30.3696166  19.5500121  36.0120000  30.8600000  19.2210000
  35.8130224  31.9215940  19.0742790  36.9722944  30.7366735  19.7217267
  36.0830000  30.1940000  17.8750000  35.0480000  29.7020000  17.3930000
  37.2280000  30.1260000  17.2330000  37.2707350  29.6775935  16.3290051
  38.0597314  30.5224746  17.6466812  33.5890000  30.1890000  22.1810000
  33.5800000  29.0090000  22.4990000  32.4780000  30.9170000  22.2690000
  32.5122356  31.9115885  22.0966025  31.2000000  30.3290000  22.7800000
  31.3089560  29.2512118  22.9008317  30.8470000  30.9310000  24.1180000
  31.5156119  30.4513337  24.8328270  31.1036877  31.9869484  24.0332392
  29.4120000  30.7960000  24.5980000  28.7628971  31.3690375  23.9358866
  29.1262956  29.7446132  24.5654290  29.2710000  31.3140000  26.0160000
  29.8415122  30.6768006  26.6917158  29.6543137  32.3330480  26.0680694
  27.8750000  31.3170000  26.4430000  27.4755608  30.4322511  26.7218676
  27.1320000  32.4230000  26.5740000  27.6300000  33.6560000  26.4610000
  28.6128976  33.7845607  26.2673911  27.0217097  34.4549283  26.5696097
  25.8100000  32.2990000  26.7320000  25.3906805  31.3803450  26.7505529
  25.2368195  33.1245604  26.8320648  30.2100000  30.5090000  21.6500000
  29.9780000  31.7260000  21.2690000  29.6940000  29.4360000  21.0540000
  29.9787030  28.5075289  21.3314615  28.7620000  29.5730000  19.9060000
  28.7787312  30.6033330  19.5507070  29.1510000  28.6550000  18.7550000
  29.2136451  27.6806191  19.2395169  28.2994573  28.6678338  18.0746983
  30.4160000  28.9120000  17.9800000  31.2375855  29.0960078  18.6722711
  30.7380000  27.6930000  17.1220000  29.9170191  27.5086285  16.4291102
  31.6535310  27.8756402  16.5593756  30.8739183  26.8222401  17.7634077
  30.2050000  30.1680000  17.1290000  29.9840503  31.0148368  17.7787293
  31.1091287  30.3759223  16.5567930  29.3714584  30.0082876  16.4450414
  27.3310000  29.3170000  20.3640000  27.1010000  28.3460000  21.0970000
  26.4360000  30.2320000  20.0040000  26.7372643  31.0063568  19.4297956
  25.0340000  30.1700000  20.4010000  24.7728483  29.2548369  20.9323902
  24.6390000  31.4260000  21.2860000  24.7289565  32.3228126  20.6730274
  23.1810000  31.3090000  21.8240000  23.0903801  30.4126066  22.4374881
  22.9438227  32.1861707  22.4260126  22.4876291  31.2462755  20.9853096
  25.6460000  31.6700000  22.4210000  26.6152833  31.8929815  21.9750518
  25.3064911  32.5291859  22.9994746  25.7780000  30.4360000  23.3560000
  26.1179383  29.5764731  22.7782844  26.4996428  30.6519794  24.1438349
  24.8091449  30.2126760  23.8027057  24.1010000  30.1490000  19.1960000
  24.1960000  30.9480000  18.2870000  23.1410000  29.1870000  19.2410000
  23.1196882  28.5271497  20.0053577  22.1260000  29.0620000  18.1830000
  21.9958153  30.0384433  17.7164063  22.4940000  28.0570000  17.1090000
  23.4142064  28.3527232  16.6051476  22.6344875  27.0837355  17.5792335
  21.4470000  27.8690000  16.0260000  21.3250000  28.8130000  15.0050000
  21.9816602  29.6829366  14.9946220  20.3690000  28.6480000  14.0010000
  20.2094381  29.3913126  13.2198937  19.5930000  27.4650000  14.0210000
  18.9109159  27.2935304  13.1882580  19.6770000  26.5390000  15.0510000
  19.0158232  25.6733907  15.0918155  20.6380000  26.7350000  16.0530000
  20.7509593  26.0010074  16.8508690  20.8350000  28.6290000  18.9040000
  20.8210000  27.7340000  19.7490000  19.8100000  29.3780000  18.5780000
  19.9744546  30.1911517  18.0019459  18.4430000  29.1430000  19.0830000
  17.8197394  30.0174864  18.8961339  17.8640000  27.9770000  18.3460000
  18.4721463  27.0914724  18.5306591  16.8462371  27.7968050  18.6921050
  17.8511476  28.1919451  17.2774811  18.4530000  28.9410000  20.5910000
  17.8600000  27.9940000  21.1280000  19.1720000  29.8080000  21.2430000
  19.6113978  30.4929629  20.6447904  19.3990000  29.8940000  22.6550000
  19.9991241  30.7912878  22.8060792  18.4168797  30.0340940  23.1065670
  20.0830000  28.7290000  23.3210000  19.9910000  28.5840000  24.5610000
  20.8010000  27.9310000  22.5780000  20.8915395  28.1280173  21.5915487
  21.5500000  26.7960000  23.1330000  21.2814027  26.6633331  24.1810239
  21.2420000  25.5190000  22.3910000  21.5280545  25.6805943  21.3516928
  21.8720107  24.7420846  22.8241154  19.7620000  25.0770000  22.4550000
  19.4844807  24.7831541  23.4672937  19.1003813  25.8733411  22.1141135
  19.6340000  23.8850000  21.5310000  20.6315803  23.5846580  21.2104891
  19.1679912  23.0672392  22.0807295  18.7910000  24.2210000  20.3130000
  19.2403401  25.0334559  19.7419400  18.6719137  23.3485427  19.6705548
  17.4400000  24.6550000  20.8270000  17.5500784  25.4636894  21.4219823
  16.8425843  24.8895845  20.0471509  17.0232745  23.9021510  21.3558263
  23.0460000  27.0870000  22.9130000  23.3830000  27.6270000  21.8700000
  23.8800000  26.7270000  23.8510000  23.5556363  26.3536200  24.7316105
  25.3490000  26.8720000  23.6430000  25.5455148  27.7542320  23.0337810
  26.0700000  27.0250000  24.9600000  25.6147229  27.8322251  25.5337679
  26.0007682  26.0949822  25.5242463  27.5530000  27.3560000  24.6950000
  28.0341387  26.5270402  24.1759317  27.6454422  28.2618722  24.0958740
  28.2620000  27.5760000  26.0200000  29.1890000  26.8400000  26.3350000
  27.7770000  28.5850000  26.7390000  28.1869478  28.8051597  27.6354229
  27.0011148  29.1261454  26.3850717  25.7430000  25.5860000  22.9220000
  25.3250000  24.4890000  23.3780000  26.4650000  25.6890000  21.8330000
  26.6923374  26.6088252  21.4832305  26.8260000  24.5210000  21.0120000
  26.0268605  23.7797726  21.0195594  27.0430000  24.9920000  19.5710000
  27.9724724  25.5612692  19.5816237  27.1775549  24.0887170  18.9759582
  25.9310000  25.8440000  18.9590000  25.8883732  26.8012177  19.4786327
  26.2030000  26.0830000  17.4710000  26.2453083  25.1261936  16.9505864
  25.4033212  26.6910277  17.0480144  27.1542453  26.6021304  17.3537974
  24.5770000  25.1900000  19.0790000  24.3409007  25.0326893  20.1314305
  23.8208377  25.8338738  18.6298383  24.5894774  24.2301877  18.5625665
  27.9940000  23.7810000  21.6430000  28.9040000  24.4440000  22.0980000
  27.9420000  22.4480000  21.6480000  27.1672069  21.9534440  21.2294199
  29.0150000  21.6570000  22.2880000  29.5971765  22.2645992  22.9808153
  28.3480000  20.5400000  23.0660000  27.7755412  21.0427409  23.8455138
  27.6638971  20.0729809  22.3574830  29.2470000  19.4560000  23.7050000
  29.2766995  18.5848790  23.0505026  30.2519903  19.8644209  23.8112362
  28.7220000  19.0470000  25.0660000  29.1390000  18.1320000  25.7460000
  27.7770000  19.8420000  25.3670000  29.9420000  21.1060000  21.2400000
  29.4700000  20.6770000  20.1900000  31.2330000  21.0900000  21.4590000
  31.5252795  21.5099708  22.3298022  32.2620000  20.6700000  20.5140000
  32.2995874  21.3405192  19.6554603  33.6380000  20.7160000  21.2420000
  33.4828973  20.3063254  22.2401028  34.3555318  20.0971218  20.7032627
  34.1740000  22.1290000  21.3540000  35.2520000  22.3220000  21.9580000
  33.5440000  23.0860000  20.8830000  32.1280000  19.3640000  19.7500000
  32.5460000  19.3170000  18.5580000  31.6970000  18.3110000  20.4060000
  31.4384054  18.4424135  21.3734496  31.5680000  16.9620000  19.8250000
  32.4279311  16.8215626  19.1700993  31.6257650  16.2584948  20.6555678
  30.3200000  16.6980000  19.0510000  30.1980000  15.6570000  18.3660000
  29.3400000  17.5940000  19.0760000  29.4333559  18.4146310  19.6573336
  28.1080000  17.4390000  18.2760000  27.8540589  16.3807329  18.2153059
  26.9260000  18.1910000  18.8920000  27.1614867  19.2541349  18.8431177
  26.0547608  17.9834338  18.2707443  26.6210000  17.7990000  20.3520000
  27.5279039  17.7760963  20.9562364  25.9002361  18.4796553  20.8051112
  26.0100000  16.3700000  20.2800000  25.0593553  16.2959514  20.8081008
  25.8836522  16.0217638  19.2548818  26.9750000  15.5210000  20.9420000
  27.1104658  15.9288736  21.8559954  27.6030000  14.4230000  20.6550000
  27.4790000  13.7330000  19.5370000  26.8494563  14.0548145  18.8157440
  28.0142101  12.8862745  19.4077496  28.5190000  13.9670000  21.5500000
  28.6878140  14.4822306  22.4021381  29.0266253  13.1150289  21.3587920
  28.3750000  17.9990000  16.8870000  29.3260000  18.7860000  16.6900000
  27.5100000  17.6890000  15.9540000  26.7489525  17.0749028  16.2065682
  27.5740000  18.1920000  14.5630000  28.5706813  18.5937568  14.3804706
  27.2990000  17.0550000  13.5330000  27.3414667  17.5298813  12.5528038
  28.2360000  15.8640000  13.5580000  28.1937276  15.3882916  14.5378031
  27.9345517  15.1477768  12.7936360  29.2545543  16.1981681  13.3605679
  25.9250000  16.6110000  13.9130000  25.6470484  15.8984875  13.3327680
  26.4820000  19.2800000  14.4320000  25.6090000  19.3880000  15.2870000
  26.5850000  20.0630000  13.3780000  27.3910719  19.9761681  12.7756649
  25.5940000  21.1090000  13.0720000  25.4931813  21.8058001  13.9041084
  26.0840000  21.8880000  11.8330000  26.0879352  21.1985290  10.9887764
  25.2825736  22.6153829  11.7036557  27.4260000  22.6160000  11.9020000
  28.2131057  21.8880497  12.0986059  27.7180000  23.3410000  10.5780000
  26.9315099  24.0694899  10.3809353  28.6777128  23.8530706  10.6475405
  27.7520842  22.6151583   9.7655392  27.3800000  23.7210000  12.9550000
  27.1627260  23.2854089  13.9302701  28.3434848  24.2294152  12.9912269
  26.6009080  24.4380290  12.6961871  24.2410000  20.4360000  12.8570000
  23.2640000  20.9510000  13.3290000  24.2400000  19.2330000  12.2460000
  25.0649861  18.7812849  11.8779637  22.9240000  18.5830000  12.0250000
  22.2549451  19.2831669  11.5247690  23.0590000  17.3260000  11.1540000
  22.0726188  16.8811605  11.0225875  23.4601377  17.6127092  10.1818959
  23.9140000  16.3950000  11.7550000  23.9848244  15.6179571  11.1957254
  22.2290000  18.2440000  13.3250000  20.9630000  18.2530000  13.3950000
  22.9970000  17.9780000  14.3660000  23.9980671  17.9121242  14.2492764
  22.4180000  17.6380000  15.6930000  21.7763852  16.7649324  15.5739089
  23.4610000  17.3310000  16.7410000  24.1822578  18.1471639  16.6990126
  22.9286244  17.3658236  17.6915070  24.1840000  16.0160000  16.6190000
  25.3030000  15.8940000  17.1520000  23.5720000  15.1070000  15.9750000
  21.4600000  18.7370000  16.1630000  20.4970000  18.5060000  16.9000000
  21.8460000  19.9540000  15.9050000  22.7485645  20.0742312  15.4679404
  21.0790000  21.1490000  16.2510000  20.4498664  20.9784853  17.1246217
  22.0850000  22.2540000  16.5810000  22.7230380  22.4567908  15.7208357
  21.4659748  23.1270953  16.7874277  22.9450000  21.9510000  17.7850000
  24.2720000  21.5440000  17.6440000  24.7006829  21.4279745  16.6485762
  25.0520000  21.2850000  18.7760000  26.0615528  20.8886760  18.6672232
  24.5170000  21.4700000  20.0300000  25.2480000  21.3020000  21.1910000
  26.1584215  21.0452882  21.0271968  23.2040000  21.9070000  20.1920000
  22.7778832  22.0528832  21.1845941  22.4370000  22.1570000  19.0650000
  21.4154246  22.5220341  19.1709897  20.1420000  21.5900000  15.1490000
  19.4990000  22.6450000  15.3210000  19.9930000  20.8840000  14.0490000
  20.5640348  20.0734078  13.8567533  19.0650000  21.3520000  12.9990000
  19.1833894  20.7269182  12.1139261  17.5860000  21.2820000  13.4610000
  17.4759768  20.3660133  14.0414847  17.3720440  22.1417870  14.0958930
  16.5760000  21.2580000  12.3150000  15.4400000  21.8190000  12.3780000
  16.9240000  20.5860000  11.2160000  16.2886104  20.5422463  10.4321215
  17.8212060  20.1241800  11.1730530  19.4420000  22.7450000  12.5100000
  18.5710000  23.6100000  12.2890000  20.7170000  22.9640000  12.2600000
  21.4053065  22.2501239  12.4516099  21.1840000  24.2630000  11.6900000
  20.5565147  25.1065498  11.9777242  22.6500000  24.5160000  12.1720000
  23.1967554  23.5817066  12.0445063  23.3760000  25.6450000  11.4090000
  22.8300477  26.5797737  11.5364161  24.3863486  25.7584632  11.8019665
  23.4248635  25.3949345  10.3491987  22.6620000  24.8190000  13.6990000
  22.1104477  25.7401408  13.8871233  22.1865505  23.9960128  14.2326097
  24.1230000  24.9810000  14.1950000  24.5989884  25.8041594  13.6621365
  24.1228798  25.1927913  15.2642257  24.6750921  24.0600314  14.0076206
  21.1100000  24.1110000  10.1730000  21.8410000  23.1980000   9.6860000
  20.2910000  24.8750000   9.5070000  19.7123992  25.5168630  10.0298120
  20.0810000  24.7730000   8.0330000  20.5384024  23.8602930   7.6510994
  18.5990000  24.7360000   7.7270000  18.1749475  25.5022626   8.3759378
  18.5341882  25.0629282   6.6892055  17.8190000  23.4340000   7.9000000
  18.3853283  22.5794362   7.5297383  17.5841639  23.2845317   8.9538564
  16.5090000  23.5290000   7.1160000  15.4460000  22.9800000   7.4330000
  16.5390000  24.2930000   6.0090000  15.7057700  24.3961635   5.4475853
  17.3946143  24.7599168   5.7443982  20.8220000  25.9140000   7.3320000
  21.3230000  26.8300000   8.0080000  20.9240000  25.8620000   6.0060000
  20.5220207  25.0759735   5.5154143  21.6560000  26.8470000   5.2400000
  22.6919055  26.8201028   5.5780467  21.6310000  26.6420000   3.7310000
  22.0691094  27.5269280   3.2694138  22.2474487  25.7719669   3.5048730
  20.2100000  26.4230000   3.1750000  19.8602471  25.4195209   3.4174941
  19.5230336  27.1579278   3.5945954  20.2680000  26.5890000   1.6560000
  20.1886171  27.6577497   1.4570745  21.2493268  26.2334016   1.3419190
  19.2020000  25.8570000   0.8910000  19.4607684  25.8454960  -0.1677763
  19.1322583  24.8332273   1.2585932  17.8840000  26.5440000   1.0750000
  17.9482855  27.4925346   0.7340467  17.1710874  26.0483571   0.5590603
  17.6438307  26.5543892   2.0559739  21.1270000  28.2400000   5.5740000
  19.9580000  28.4650000   5.8420000  22.0990000  29.1630000   5.6050000
  23.0432128  28.8055202   5.5772573  21.9070000  30.5630000   5.8810000
  22.8720458  31.0693081   5.9019253  21.0230000  31.2230000   4.7840000
  20.1423859  30.6084294   4.5971282  20.7105054  32.2161657   5.1065973
  21.8610000  31.3420000   3.4740000  22.0350324  32.3993729   3.2745608
  22.8161471  30.8396748   3.6271747  21.1560000  30.7260000   2.3110000
  19.9420000  30.7930000   2.1700000  21.9540000  30.1520000   1.5350000
  21.4660000  30.9530000   7.2610000  21.0660000  32.1120000   7.5330000
  21.6740000  30.0340000   8.1910000  22.1027824  29.1641252   7.9089312
  21.4190000  30.2530000   9.6200000  20.3924310  30.5788566   9.7875493
  21.6370000  28.9230000  10.3530000  22.5685233  28.4660420  10.0190046
  21.6834682  29.0974765  11.4279412  20.5440000  28.0470000  10.0590000
  20.6722497  27.2114706  10.5140191  22.5040000  31.2280000  10.1360000
  23.5790000  31.3210000   9.5540000  22.2410000  31.8730000  11.2410000
  21.3227734  31.7844413  11.6522380  23.2120000  32.7620000  11.8910000
  24.1554207  32.7490380  11.3452084  22.6990000  34.2670000  11.9850000
  21.7524533  34.2888047  12.5250687  23.7270000  35.1310000  12.7220000
  24.6737398  35.1100589  12.1822364  23.3649668  36.1574916  12.7798455
  23.8748350  34.7411234  13.7290956  22.4950000  34.6900000  10.5890000
  22.1825460  35.5975714  10.5720580  23.5090000  32.2240000  13.2900000
  22.5440000  31.9420000  14.0340000  24.7900000  32.0210000  13.6180000
  25.5351051  32.2248714  12.9673432  25.1490000  31.6090000  14.9800000
  24.2863526  31.1453536  15.4585088  26.3100000  30.5940000  14.9670000
  27.1775643  31.2292697  14.7884954  26.3679720  30.1745323  15.9713835
  26.2900000  29.4800000  13.9600000  26.4321884  29.9125285  12.9696453
  27.3930000  28.4420000  14.2290000  27.2511979  28.0086693  15.2190583
  27.3423022  27.6541389  13.4774646  28.3681623  28.9266533  14.1813536
  24.9420000  28.8070000  13.9520000  24.1734081  29.5349813  13.6923671
  24.9417844  28.0015901  13.2175505  24.7342190  28.3968596  14.9402868
  25.6980000  32.8760000  15.6690000  26.1580000  33.7300000  14.8940000
  25.6210000  32.9450000  16.9500000  25.2479707  32.1901248  17.5077741
  26.1790000  34.1270000  17.6500000  26.2985689  34.9565100  16.9530669
  25.2140000  34.5650000  18.7800000  24.8862686  33.7468868  19.4213907
  25.6280501  35.3643465  19.3945793  23.9780000  35.1210000  18.1260000
  23.8530000  36.4320000  17.7810000  22.6740000  36.6270000  17.2000000
  22.3690754  37.6106280  16.8427944  22.0450000  35.4550000  17.1730000
  21.1360757  35.2810423  16.7684075  22.8240000  34.5140000  17.7820000
  22.4548526  33.4954462  17.9019151  27.4750000  33.6510000  18.3040000
  27.5070000  32.5870000  18.9580000  28.5250000  34.4470000  18.1890000
  28.4606557  35.2771848  17.6173775  29.8010000  34.1450000  18.8290000
  29.8199707  33.1216822  19.2039133  30.9250000  34.3040000  17.7530000
  30.7859711  33.5323491  16.9958177  30.8077015  35.2864228  17.2956308
  32.3450000  34.1830000  18.3580000  32.4513810  34.8902068  19.1805828
  32.5550000  32.7830000  18.8700000  32.4492254  32.0752141  18.0478384
  33.5546537  32.6975006  19.2960084  31.8133880  32.5611620  19.6373982
  33.3610000  34.4910000  17.2450000  33.1955141  35.5012415  16.8706660
  34.3724062  34.4130021  17.6438421  33.2360876  33.7773302  16.4306467
  30.0520000  35.0420000  20.0040000  30.1050000  36.3050000  19.7880000
  30.1240000  34.5330000  21.1910000  29.8978139  33.5603857  21.3425278
  30.4790000  35.3690000  22.3740000  30.5891026  36.4358992  22.1798282
  29.4720000  35.1810000  23.4980000  29.4306565  34.1156057  23.7245501
  29.8210000  35.9570000  24.7650000  29.8620749  37.0225916  24.5393270
  29.0597915  35.7759279  25.5238643  30.7907454  35.6274854  25.1379822
  28.0490000  35.4540000  23.0710000  27.7741430  34.7737427  22.2648948
  27.3795901  35.3024121  23.9177651  27.9649870  36.4831200  22.7217800
  31.9010000  34.9100000  22.7280000  32.1900000  33.6960000  22.6350000
  32.7630000  35.8310000  23.0900000  32.5113102  36.8088020  23.0644102
  34.1450000  35.4720000  23.4810000  34.4279536  34.5036324  23.0683249
  35.1140000  36.5640000  22.9070000  34.4831893  37.3744294  22.5417860
  35.7956950  36.9485129  23.6656447  35.9260000  35.9790000  21.7370000
  36.7607139  35.3896779  22.1165431  35.0030000  35.0840000  20.9200000
  34.1682300  35.6727584  20.5397088  35.5566568  34.6571339  20.0837284
  34.6227184  34.2807777  21.5511262  36.5330000  37.0870000  20.9170000
  37.1939040  37.6843528  21.5450724  37.1042863  36.6590009  20.0932585
  35.7407177  37.7206418  20.5183952  34.2390000  35.3530000  24.9790000
  33.7070000  36.1970000  25.7280000  34.9300000  34.3840000  25.4510000
  35.3722505  33.7523876  24.7986354  35.1610000  34.1740000  26.8960000
  34.5853730  34.8930214  27.4788902  34.7170000  32.7600000  27.2860000
  33.7750083  32.8368603  27.8289949  34.5628896  32.1874349  26.3713857
  35.7520000  32.0540000  28.1600000  36.7499956  32.3505761  27.8372800
  35.6025695  32.3524982  29.1976278  35.6120000  30.5770000  28.0440000
  36.5851453  30.0936685  28.1304745  34.9470176  30.1949026  28.8185317
  35.0400000  30.2520000  26.7300000  35.0657400  30.8582441  25.9225937
  34.3380000  29.1030000  26.6500000  34.1100000  28.4370000  27.7680000
  34.4595238  28.7946671  28.6455006  33.5872316  27.5732699  27.7400157
  34.0140000  28.6570000  25.4570000  34.2919669  29.1742033  24.6352122
  33.4885368  27.7991106  25.3674857  36.6710000  34.2960000  27.0890000
  37.3050000  33.2330000  26.7950000  37.1970000  35.3970000  27.5130000
  36.6419550  36.2339561  27.6203724  38.6680000  35.5020000  27.6800000
  39.1859009  34.8512431  26.9754482  39.0800000  36.9410000  27.4060000
  38.2051415  37.5205608  27.7006712  39.8966457  37.1382994  28.1004514
  39.5020000  37.3400000  26.0020000  40.5539514  37.0805009  25.8830070
  38.6840000  36.6470000  24.9230000  37.6319224  36.9064063  25.0410677
  39.0293079  36.9699570  23.9408788  38.8037507  35.5673205  25.0127352
  39.3370000  38.8540000  25.8620000  39.9640406  39.3578993  26.5975305
  39.6351246  39.1613480  24.8596227  38.2940714  39.1233221  26.0289269
  39.0760000  34.9310000  29.0310000  38.2970000  34.9460000  29.9960000
  40.2940000  34.4120000  29.0450000  40.8333964  34.3890056  28.1914063
  40.8730000  33.8020000  30.2530000  40.0716789  33.5502544  30.9476997
  41.6510000  32.5290000  29.9230000  41.2315452  32.1423162  28.9942198
  42.6843360  32.8328153  29.7556294  41.6080000  31.4440000  30.9890000
  42.3464962  31.7003976  31.7485949  40.6121238  31.4579580  31.4318744
  41.8960000  30.0800000  30.4560000  41.3149856  29.3500884  31.0196934
  41.6057121  30.0420234  29.4060523  43.3110000  29.7350000  30.5630000
  43.6443136  29.3080860  31.4154939  44.1740000  29.9050000  29.5540000
  43.7540000  30.3120000  28.3560000  42.7725290  30.4954903  28.2038622
  44.4191987  30.4349899  27.6060108  45.4770000  29.7260000  29.7630000
  45.8067012  29.4632012  30.6807876  46.1295231  29.8538670  29.0027617
  41.7650000  34.8290000  30.9440000  42.9450000  34.9940000  30.5830000
  41.1650000  35.5310000  31.8980000  40.1894884  35.3507929  32.0877414
  41.8450000  36.5500000  32.6860000  41.8153031  36.2240820  33.7257090
  42.8798220  36.5813924  32.3450346  41.2510000  37.9410000  32.5880000
  41.1020000  38.5230000  31.5000000  40.9460000  38.4720000  33.7570000
  41.1228028  37.9083367  34.5762214  40.3730000  39.8130000  33.9440000
  41.0909510  40.5788181  33.6504560  39.4626489  39.9242642  33.3549495
  40.0310000  39.9920000  35.4320000  38.9330000  40.5250000  35.6870000
  40.8161071  39.6205843  36.3015397
