
 1231  0.0000000e+00
  27.3400000  24.4300000   2.6140000  28.1910000  24.7960000   3.0170000
  27.4500000  24.3820000   1.6110000  27.0640000  23.6080000   3.1310000
  26.2660000  25.4130000   2.8420000  25.8920000  25.7360000   1.8710000
  25.1120000  24.8800000   3.6490000  24.2500000  25.5100000   3.4290000
  24.9180000  23.8660000   3.2990000  25.3530000  24.8600000   5.1340000
  26.2790000  24.3370000   5.3710000  25.3950000  25.8730000   5.5350000
  23.9300000  23.9590000   5.9040000  24.4470000  23.9840000   7.6200000
  24.5520000  25.0160000   7.9530000  23.7000000  23.4790000   8.2330000
  25.4040000  23.4710000   7.7190000  26.9130000  26.6390000   3.5310000
  27.8860000  26.4630000   4.2630000  26.3350000  27.7700000   3.2580000
  25.6000000  27.8520000   2.5710000  26.8500000  29.0210000   3.8980000
  27.8980000  28.9100000   4.1770000  26.7330000  30.1480000   2.9050000
  27.5010000  29.9480000   2.1580000  25.7480000  30.0280000   2.4550000
  26.8820000  31.5460000   3.4090000  26.0800000  31.7430000   4.1200000
  27.8450000  31.6690000   3.9050000  26.7860000  32.5620000   2.2700000
  27.7830000  33.1600000   1.8700000  25.5620000  32.7330000   1.8060000
  25.3970000  33.3850000   1.0520000  24.7960000  32.2110000   2.2070000
  26.1000000  29.2530000   5.2020000  24.8650000  29.0240000   5.3300000
  26.8490000  29.6560000   6.2170000  27.8570000  29.6260000   6.1580000
  26.2350000  30.0580000   7.4970000  25.1920000  30.3430000   7.3620000
  26.3440000  29.0500000   8.6450000  25.9630000  29.4950000   9.5640000
  25.4910000  27.7710000   8.2870000  25.8720000  27.3250000   7.3680000
  25.5620000  27.0470000   9.0990000  24.4490000  28.0570000   8.1460000
  27.8100000  28.7480000   8.9990000  28.2060000  28.0750000   8.2390000
  28.3610000  29.6880000   8.9740000  27.9670000  28.0870000  10.4170000
  27.4170000  27.1460000  10.4430000  29.0220000  27.8960000  10.6150000
  27.5720000  28.7600000  11.1780000  26.8820000  31.4280000   7.8620000
  27.9060000  31.7110000   7.2640000  26.2140000  32.0970000   8.7710000
  25.3470000  31.7860000   9.1850000  26.7720000  33.4360000   9.1970000
  27.6580000  33.6940000   8.6160000  25.6950000  34.4980000   8.9460000
  24.7990000  34.2200000   9.5010000  26.0200000  35.4910000   9.2560000
  25.2880000  34.6090000   7.4990000  24.1470000  33.9660000   7.0380000
  23.5120000  33.4120000   7.7300000  23.8120000  34.0310000   5.6770000
  22.9450000  33.5140000   5.2670000  24.6200000  34.7780000   4.8530000
  24.2850000  34.8790000   3.8210000  25.8100000  35.3920000   5.2670000
  26.4760000  35.8940000   4.5650000  26.1360000  35.3460000   6.6400000
  27.0190000  35.8690000   7.0080000  27.1510000  33.3620000  10.6500000
  26.3500000  32.7780000  11.3950000  28.2600000  33.9430000  11.0960000
  28.8910000  34.3830000  10.4410000  28.6050000  33.9650000  12.5030000
  27.8310000  33.4360000  13.0600000  29.9630000  33.3170000  12.8140000
  30.7550000  33.8480000  12.2860000  30.2110000  33.3940000  14.3040000
  29.4190000  32.8630000  14.8330000  31.1730000  32.9370000  14.5370000
  30.2200000  34.4380000  14.6180000  29.9570000  31.8380000  12.3520000
  29.7740000  31.7930000  11.2780000  30.9220000  31.3830000  12.5750000
  29.1710000  31.2960000  12.8770000  28.6380000  35.4610000  12.9000000
  29.5220000  36.1030000  12.3200000  27.7510000  35.8670000  13.7400000
  27.0660000  35.2340000  14.1260000  27.6910000  37.3150000  14.1430000
  28.1280000  37.9570000  13.3780000  26.2190000  37.6840000  14.3070000
  25.7440000  37.3930000  13.3700000  25.8520000  37.0480000  15.1130000
  25.8840000  39.1390000  14.6150000  26.2950000  39.4170000  15.5860000
  26.3020000  39.7870000  13.8450000  24.3480000  39.2960000  14.6420000
  23.9680000  38.8520000  13.7220000  23.9860000  38.7250000  15.4970000
  23.8650000  40.7230000  14.7490000  24.3210000  41.2030000  15.6150000
  24.1330000  41.2720000  13.8460000  22.3750000  40.7200000  14.9070000
  22.1260000  40.2120000  15.7430000  22.0420000  41.6710000  14.9790000
  21.9520000  40.2760000  14.1050000  28.4690000  37.4750000  15.4200000
  28.2130000  36.7530000  16.4110000  29.4260000  38.4300000  15.4460000
  29.6350000  38.9900000  14.6320000  30.2250000  38.6430000  16.6620000
  30.1470000  37.7370000  17.2630000  31.7440000  38.8790000  16.2990000
  32.3250000  38.7010000  17.2040000  32.2600000  37.9690000  15.1710000
  31.6790000  38.1470000  14.2660000  33.3100000  38.1890000  14.9780000
  32.1570000  36.9260000  15.4690000  31.7370000  40.2570000  15.8240000
  32.6270000  40.5130000  15.5710000  29.6640000  39.8390000  17.4340000
  28.8500000  40.5650000  16.8590000  30.1320000  40.0690000  18.6420000
  30.7720000  39.4160000  19.0700000  29.6070000  41.1800000  19.4670000
  28.5270000  41.2680000  19.3510000  29.9190000  40.8900000  20.9380000
  30.9920000  40.7000000  20.9620000  29.7000000  41.8050000  21.4890000
  29.1830000  39.7220000  21.5810000  29.6080000  38.7940000  21.1990000
  29.3080000  39.7500000  23.0950000  28.8830000  40.6780000  23.4780000
  28.7710000  38.9020000  23.5200000  30.3600000  39.6900000  23.3740000
  27.7000000  39.7210000  21.2280000  27.5830000  39.6440000  20.1470000
  27.2130000  38.8720000  21.7070000  27.2420000  40.6460000  21.5770000
  30.0750000  42.5380000  18.9840000  29.5860000  43.5700000  19.4830000
  30.9910000  42.5710000  17.9980000  31.4500000  41.7690000  17.5910000
  31.4220000  43.9400000  17.5530000  31.1340000  44.6910000  18.2880000
  32.9790000  43.9180000  17.4450000  33.3150000  44.9460000  17.3100000
  33.6570000  43.3190000  18.6720000  33.3220000  42.2910000  18.8070000
  34.7380000  43.3330000  18.5340000  33.3960000  43.9040000  19.5540000
  33.1740000  43.0670000  16.2650000  34.1130000  42.9740000  16.0900000
  30.7550000  44.3510000  16.2770000  31.2070000  45.2680000  15.5660000
  29.7210000  43.6730000  15.8850000  29.4200000  42.8990000  16.4600000
  28.9780000  43.9600000  14.6780000  28.0070000  43.4770000  14.7890000
  28.8440000  45.0410000  14.6450000  29.6040000  43.5070000  13.3930000
  29.2190000  43.9810000  12.3010000  30.5630000  42.6230000  13.4950000
  30.8660000  42.3290000  14.4120000  31.1910000  42.0120000  12.3310000
  31.0680000  42.6920000  11.4880000  32.6720000  41.7170000  12.5050000
  33.1860000  42.6520000  12.7280000  32.7910000  41.0290000  13.3420000
  33.2800000  41.0860000  11.2270000  32.7630000  40.1550000  10.9950000
  33.1760000  41.7770000  10.3900000  34.7620000  40.7990000  11.4700000
  35.1160000  41.5410000  12.1860000  34.8240000  39.8060000  11.9160000
  35.6140000  40.8470000  10.2400000  35.6980000  41.8960000   9.9570000
  36.5960000  40.4680000  10.5230000  35.1000000  40.0730000   9.1010000
  34.1900000  40.4250000   8.8380000  35.7340000  40.1620000   8.3200000
  35.0220000  39.1010000   9.3620000  30.4590000  40.6660000  12.1300000
  30.2530000  39.9910000  13.1330000  30.1630000  40.3380000  10.8860000
  30.3170000  40.9420000  10.0910000  29.5420000  39.0200000  10.6530000
  29.4850000  38.5050000  11.6120000  28.1130000  39.0490000  10.0150000
  28.1650000  39.6210000   9.0890000  27.5880000  37.6350000   9.7150000
  27.5360000  37.0620000  10.6410000  26.5940000  37.7020000   9.2730000
  28.2620000  37.1370000   9.0180000  27.2800000  39.7220000  10.9960000
  26.3790000  39.7760000  10.6680000  30.4940000  38.2610000   9.7290000
  30.8490000  38.8500000   8.7060000  30.7950000  37.0150000  10.0950000
  30.5890000  36.6010000  10.9930000  31.7200000  36.2890000   9.1760000
  31.9940000  36.7930000   8.2490000  32.9950000  35.8830000   9.9340000
  33.8280000  36.2820000   9.3550000  33.1090000  36.3810000  11.4350000
  32.2760000  35.9820000  12.0150000  34.0490000  36.0330000  11.8630000
  33.0800000  37.4700000  11.4600000  33.3060000  34.3810000   9.8400000
  32.4390000  33.8160000  10.1830000  33.5180000  34.1260000   8.8020000
  34.5350000  34.0280000  10.7200000  34.3240000  34.2830000  11.7590000
  34.7430000  32.9610000  10.6430000  35.4020000  34.5920000  10.3770000
  30.9550000  35.2110000   8.4590000  30.0250000  34.6180000   9.0400000
  31.2440000  34.9860000   7.1970000  31.9110000  35.5210000   6.6600000
  30.5050000  33.8840000   6.5120000  29.6000000  33.6890000   7.0870000
  30.0910000  34.3930000   5.0780000  29.4060000  33.6640000   4.6460000
  29.4200000  35.7560000   5.1190000  30.1050000  36.4860000   5.5500000
  29.1540000  36.0610000   4.1070000  28.5190000  35.7000000   5.7290000
  31.4400000  34.5130000   4.4870000  31.3660000  34.8230000   3.5820000
  31.4090000  32.6800000   6.4460000  32.6190000  32.8120000   6.1250000
  30.8840000  31.4850000   6.6660000  29.8850000  31.4000000   6.7840000
  31.6770000  30.2750000   6.6390000  32.7280000  30.4740000   6.4290000
  31.5620000  29.6860000   8.0450000  30.8690000  30.4400000   8.4200000
  31.0220000  28.7580000   7.8580000  32.6310000  29.4440000   9.0600000
  32.9770000  28.4240000   8.8930000  33.8140000  30.3900000   9.0300000
  33.4680000  31.4100000   9.1980000  34.5210000  30.1130000   9.8120000
  34.3050000  30.3280000   8.0590000  31.9450000  29.4490000  10.4360000
  31.1930000  28.6610000  10.4700000  32.6890000  29.2750000  11.2140000
  31.4660000  30.4140000  10.6000000  31.0220000  29.2880000   5.6650000
  29.8090000  29.3950000   5.5450000  31.8340000  28.4120000   5.1250000
  32.8400000  28.4330000   5.2170000  31.2200000  27.3410000   4.2750000
  30.1540000  27.5460000   4.1760000  31.8270000  27.2620000   2.8940000
  32.9110000  27.3000000   3.0050000  31.5410000  26.3040000   2.4600000
  31.3630000  28.4100000   1.9620000  30.2860000  28.5080000   2.1000000
  31.8620000  29.2900000   2.3680000  31.6710000  28.2910000   0.4980000
  30.8690000  28.6210000  -0.3660000  32.8350000  27.8610000   0.2780000
  31.4400000  26.0790000   5.0800000  32.5760000  25.8020000   5.4610000
  30.3100000  25.4580000   5.3840000  29.4300000  25.8340000   5.0600000
  30.2880000  24.2450000   6.1930000  31.2130000  23.6680000   6.2010000
  29.9030000  24.5900000   7.6650000  29.8300000  23.6400000   8.1950000
  30.8620000  25.4960000   8.3890000  30.9350000  26.4460000   7.8600000
  30.5010000  25.6720000   9.4020000  31.8450000  25.0270000   8.4300000
  28.4760000  25.1350000   7.7050000  27.7880000  24.3830000   7.3170000
  28.2070000  25.3760000   8.7330000  28.4130000  26.0350000   7.0930000
  29.2790000  23.2270000   5.6410000  28.4780000  23.5220000   4.7250000
  29.3800000  22.0570000   6.2320000  30.1030000  21.9370000   6.9270000
  28.4680000  20.9400000   5.9800000  27.7510000  21.2300000   5.2120000
  29.2130000  19.6970000   5.5060000  30.0540000  19.5610000   6.1860000
  28.5220000  18.8610000   5.6120000  29.7280000  19.7550000   4.0600000
  30.4980000  20.5260000   4.0840000  30.1910000  18.7870000   3.8690000
  28.7540000  20.0610000   2.9780000  27.5460000  19.9920000   2.9850000
  29.3360000  20.4230000   1.9040000  27.8190000  20.6090000   7.3160000
  28.4490000  20.6740000   8.3600000  26.5590000  20.2200000   7.2880000
  25.7140000  20.1080000   6.0730000  25.9190000  19.1770000   5.5440000
  25.8860000  20.9510000   5.4040000  24.2990000  20.1340000   6.7040000
  23.5670000  19.6810000   6.0360000  23.9950000  21.1550000   6.9360000
  24.4690000  19.3320000   7.9520000  24.5310000  18.2720000   7.7050000
  23.6920000  19.4850000   8.7010000  25.8290000  19.8250000   8.4940000
  25.7260000  20.7020000   9.1340000  26.5410000  18.7320000   9.2510000
  26.3330000  18.5360000  10.4570000  27.3610000  17.9590000   8.5590000
  27.5240000  18.1170000   7.5750000  28.0540000  16.8350000   9.2100000
  27.3750000  16.3390000   9.9040000  28.5230000  15.8200000   8.1820000
  29.3540000  15.2600000   8.6100000  27.6970000  15.1400000   7.9720000
  28.9460000  16.4450000   6.9670000  29.2340000  15.7730000   6.3450000
  29.2580000  17.3180000   9.9840000  29.9300000  16.4770000  10.6060000
  29.5990000  18.5990000   9.8280000  29.0880000  19.2590000   9.2590000
  30.7960000  19.0830000  10.5660000  31.6480000  18.4260000  10.3930000
  31.1550000  20.5150000  10.0480000  30.3010000  21.1810000   9.9230000
  31.8050000  20.9010000  10.8330000  31.9230000  20.4360000   8.7550000
  32.4930000  19.3740000   8.4560000  31.8380000  21.4020000   7.9680000
  30.4910000  19.1620000  12.0400000  29.3670000  19.5230000  12.4410000
  31.5100000  18.9360000  12.8520000  32.4010000  18.6620000  12.4640000
  31.3980000  19.0640000  14.2860000  30.4160000  18.7280000  14.6180000
  32.4920000  18.1930000  14.9950000  32.3850000  18.3150000  16.0730000
  32.3520000  16.7000000  14.6300000  32.4590000  16.5770000  13.5520000
  33.1270000  16.1270000  15.1390000  31.3710000  16.3400000  14.9400000
  33.7780000  18.7390000  14.5160000  34.5020000  18.2490000  14.9130000
  31.5930000  20.5530000  14.6550000  32.1590000  21.3110000  13.8610000
  31.1130000  20.8630000  15.8600000  30.5700000  20.1930000  16.3850000
  31.2880000  22.2010000  16.4170000  30.9370000  22.9800000  15.7410000
  30.5200000  22.3000000  17.7640000  30.8540000  21.5280000  18.4580000
  30.8320000  23.6990000  18.3580000  30.4980000  24.4710000  17.6650000
  30.3120000  23.8150000  19.3090000  31.9060000  23.7950000  18.5180000
  29.0060000  22.0430000  17.4420000  28.9280000  21.0030000  17.1260000
  28.4620000  22.1810000  18.3760000  28.4070000  22.9480000  16.3660000
  28.9500000  22.8110000  15.4310000  27.3580000  22.6910000  16.2170000
  28.4850000  23.9890000  16.6810000  32.7760000  22.5190000  16.5770000
  33.2330000  23.6590000  16.3840000  33.5480000  21.5260000  16.9500000
  33.1680000  20.6130000  17.1570000  35.0310000  21.7220000  17.0690000
  35.2640000  22.4500000  17.8460000  35.6670000  20.3830000  17.4470000
  35.0310000  20.0220000  18.2550000  35.5090000  19.7700000  16.5590000
  37.1280000  20.2930000  17.8720000  37.7030000  20.7290000  17.0550000
  37.3050000  20.8620000  18.7850000  37.5610000  18.8510000  18.0820000
  37.7580000  18.0240000  17.1950000  37.6280000  18.5990000  19.3130000
  35.6150000  22.1900000  15.7590000  36.5320000  23.0460000  15.7240000
  35.1390000  21.6240000  14.6620000  34.4800000  20.8680000  14.7820000
  35.5900000  21.9450000  13.3020000  36.6800000  21.9260000  13.2820000
  35.0640000  20.9570000  12.2550000  35.4560000  19.9580000  12.4430000
  33.9740000  20.9250000  12.2550000  35.5410000  21.4180000  10.8710000
  36.7720000  21.6230000  10.6760000  34.6280000  21.5950000   9.9200000
  34.9140000  21.8980000   9.0000000  33.6530000  21.4260000  10.1220000
  35.2380000  23.3820000  12.9200000  36.0660000  24.1090000  12.3330000
  34.0070000  23.7450000  13.2500000  33.3510000  23.0730000  13.6220000
  33.5330000  25.0970000  12.9780000  33.6550000  25.3970000  11.9370000
  32.0600000  25.2570000  13.3640000  31.9000000  24.8570000  14.3650000
  31.6840000  26.7490000  13.3420000  31.8430000  27.1500000  12.3410000
  30.6350000  26.8640000  13.6170000  32.3070000  27.2920000  14.0530000
  31.1520000  24.4210000  12.4770000  31.4190000  23.3680000  12.5720000
  30.1150000  24.5620000  12.7820000  31.2700000  24.7330000  11.4390000
  34.4410000  26.0990000  13.6840000  34.8830000  27.0900000  13.0930000
  34.7340000  25.8220000  14.9490000  34.3450000  25.0080000  15.4040000
  35.5960000  26.7150000  15.7360000  35.1710000  27.7180000  15.7580000
  35.7150000  26.2030000  17.1720000  35.9420000  25.1370000  17.1710000
  36.5040000  26.7420000  17.6970000  34.3430000  26.4450000  17.8980000
  34.0560000  27.4930000  17.8180000  33.5680000  25.8220000  17.4520000
  34.5090000  26.0770000  19.3600000  34.7880000  25.0260000  19.4310000
  35.2980000  26.6920000  19.7930000  33.2060000  26.3110000  20.1220000
  32.9200000  27.3620000  20.0850000  32.4020000  25.7020000  19.7090000
  33.4550000  25.9100000  21.5460000  34.2000000  26.4740000  21.9290000
  32.6140000  26.0500000  22.0870000  33.7190000  24.9360000  21.5800000
  36.9750000  26.8260000  15.1070000  37.5790000  27.9260000  15.1590000
  37.4990000  25.7430000  14.5710000  37.0280000  24.8560000  14.6830000
  38.7940000  25.7610000  13.8800000  39.5140000  26.2390000  14.5450000
  39.2850000  24.3360000  13.5660000  38.5790000  23.8480000  12.8940000
  40.2640000  24.3850000  13.0900000  39.3590000  23.7650000  14.4910000
  38.7280000  26.5910000  12.6110000  39.7040000  27.3460000  12.2770000
  37.6330000  26.5430000  11.8670000  36.8900000  25.9010000  12.1030000
  37.4710000  27.3910000  10.6680000  38.3200000  27.2370000  10.0030000
  36.1930000  27.0580000   9.9110000  35.3550000  27.2300000  10.5860000
  36.1230000  27.7400000   9.0640000  36.1530000  25.6200000   9.4090000
  36.8730000  25.5040000   8.5990000  36.4150000  24.9480000  10.2270000
  34.7580000  25.2800000   8.9000000  34.1820000  24.8760000   9.7320000
  34.2910000  26.2000000   8.5480000  34.7930000  24.2640000   7.7670000
  35.6470000  23.6030000   7.9160000  33.8730000  23.6790000   7.7930000
  34.9140000  24.9440000   6.4410000  35.7660000  25.4850000   6.4170000
  34.9350000  24.2500000   5.7070000  34.1220000  25.5560000   6.3030000
  37.4410000  28.8820000  11.0520000  38.0200000  29.7720000  10.3820000
  36.8110000  29.1700000  12.1920000  36.3460000  28.4620000  12.7410000
  36.7310000  30.5700000  12.6450000  36.4730000  31.2260000  11.8130000
  35.7080000  30.7760000  13.8060000  35.8550000  29.9730000  14.5280000
  35.8740000  32.1380000  14.5120000  35.7260000  32.9420000  13.7910000
  35.1370000  32.2260000  15.3100000  36.8760000  32.2090000  14.9340000
  34.2280000  30.6300000  13.3190000  33.9490000  31.5080000  12.7360000
  34.1360000  29.7390000  12.6990000  33.2840000  30.5040000  14.5520000
  33.3750000  31.3950000  15.1730000  32.2530000  30.4020000  14.2120000
  33.5620000  29.6260000  15.1350000  38.1480000  30.9810000  13.0690000
  38.5440000  32.1500000  12.8560000  38.8830000  30.1100000  13.7130000
  38.5710000  29.1740000  13.9310000  40.2690000  30.5080000  14.1150000
  40.2110000  31.3850000  14.7600000  40.9960000  29.3990000  14.8650000
  40.4700000  29.1860000  15.7960000  41.0210000  28.5010000  14.2480000
  42.4450000  29.8480000  15.1820000  43.0060000  29.8840000  14.2480000
  42.4840000  30.8230000  15.6670000  43.0900000  28.8280000  16.0950000
  42.7700000  27.6550000  15.9060000  43.8980000  29.2520000  17.0500000
  44.3370000  28.5850000  17.6690000  44.0730000  30.2410000  17.1570000
  41.0920000  30.8080000  12.8510000  41.8280000  31.8080000  12.6810000
  41.0010000  29.8780000  11.9310000  40.5260000  29.0070000  12.1200000
  41.7180000  30.0220000  10.6430000  42.7970000  30.0740000  10.7900000
  41.3980000  28.7800000   9.8100000  41.2980000  27.9500000  10.5100000
  40.5070000  28.8360000   9.1850000  42.6260000  28.5570000   8.9280000
  43.6660000  28.2620000   9.5390000  42.4300000  28.8120000   7.7280000
  41.3990000  31.3380000   9.9670000  42.2600000  32.0360000   9.3810000
  40.1170000  31.7500000   9.9880000  39.3500000  31.1520000  10.2600000
  39.8080000  32.9940000   9.2330000  40.6690000  33.2730000   8.6260000
  38.6150000  32.8010000   8.3200000  38.7450000  33.5920000   7.5820000
  38.8180000  31.8360000   7.8570000  37.2200000  32.8220000   8.8270000
  36.8400000  31.8040000   8.9110000  37.1870000  33.3030000   9.8050000
  36.3510000  33.6130000   7.8380000  35.3380000  33.6720000   8.2350000
  36.7620000  34.6180000   7.7400000  36.3220000  32.9440000   6.4770000
  37.3280000  32.6530000   6.1740000  35.6810000  32.0630000   6.4990000
  35.7680000  33.9450000   5.4890000  36.3620000  34.7610000   5.4680000
  35.7360000  33.5280000   4.5700000  34.8360000  34.2140000   5.7690000
  39.8370000  34.2710000   9.9950000  40.1640000  35.3230000   9.3450000
  39.6550000  34.3350000  11.2850000  39.4760000  33.4600000  11.7570000
  39.6760000  35.5470000  12.0720000  39.9400000  36.3930000  11.4380000
  38.2900000  35.8140000  12.6980000  38.0700000  34.9690000  13.3510000
  38.3830000  36.7200000  13.2960000  37.1560000  35.9850000  11.6880000
  37.2480000  35.2160000  10.9220000  36.2110000  35.8590000  12.2170000
  37.1920000  37.3610000  11.0330000  37.5190000  38.3600000  11.6450000
  36.8610000  37.3200000   9.8220000  40.6750000  35.5270000  13.2000000
  40.8140000  36.5280000  13.9110000  41.3170000  34.3930000  13.4320000
  41.0780000  33.5770000  12.8870000  42.3450000  34.2690000  14.4310000
  42.9500000  33.4200000  14.1130000  42.9330000  35.1830000  14.3490000
  41.9490000  34.0760000  15.8420000  42.8290000  34.0000000  16.7390000
  40.6420000  33.9160000  16.1120000  39.9270000  33.9480000  15.3990000
  40.2260000  33.7160000  17.5090000  40.7880000  34.2860000  18.2490000
  38.6930000  34.1060000  17.5950000  38.1340000  33.4650000  16.9130000
  38.1460000  33.9320000  19.0270000  38.7040000  34.5730000  19.7100000
  37.0920000  34.2080000  19.0500000  38.2550000  32.8920000  19.3340000
  38.4710000  35.5460000  17.0450000  38.7600000  36.2720000  17.8050000
  39.0820000  35.6910000  16.1540000  36.9580000  35.7460000  16.6800000
  36.3470000  35.6020000  17.5710000  36.8070000  36.7550000  16.2960000
  36.6680000  35.0210000  15.9200000  40.4490000  32.2780000  17.9450000
  39.9360000  31.3360000  17.3150000  41.1890000  32.0850000  19.0310000
  41.8220000  33.1880000  19.8130000  41.1010000  33.6490000  20.4880000
  42.2350000  33.9480000  19.1490000  42.9040000  32.4140000  20.5530000
  43.2370000  32.9490000  21.4420000  43.7600000  32.2130000  19.9080000
  42.1950000  31.1420000  20.9130000  41.4650000  31.3990000  21.6810000
  42.8070000  30.3090000  21.2590000  41.4610000  30.7510000  19.5940000
  42.0290000  30.1720000  18.8660000  40.1680000  30.0260000  19.9180000
  39.2640000  30.6620000  20.5210000  40.0590000  28.7580000  19.6070000
  41.0350000  27.9090000  18.8790000  41.7240000  27.4280000  19.5730000
  41.6000000  28.5000000  18.1580000  40.0820000  26.9040000  18.1980000
  40.6000000  25.9950000  17.8930000  39.5790000  27.3420000  17.3360000
  39.0900000  26.6290000  19.3250000  39.4970000  25.9860000  20.1050000
  38.1660000  26.1950000  18.9430000  38.8170000  28.0200000  19.8890000
  38.0260000  28.4680000  19.2880000  38.4210000  28.0480000  21.3410000
  37.2130000  28.0360000  21.7040000  39.3740000  28.0900000  22.2400000
  40.3390000  28.0030000  21.9550000  39.0630000  28.0630000  23.6950000
  38.2970000  27.3180000  23.9100000  40.3400000  27.6920000  24.4680000
  40.2760000  26.6530000  24.7920000  41.1740000  27.8060000  23.7760000
  40.5590000  28.5850000  25.6750000  40.7160000  29.8090000  25.4560000
  40.5490000  28.0900000  26.8400000  38.3650000  29.3350000  24.1590000
  37.6840000  29.3900000  25.2210000  38.4190000  30.3730000  23.3410000
  38.8850000  30.3250000  22.4460000  37.7380000  31.6370000  23.7120000
  37.6670000  31.7130000  24.7970000  38.5280000  32.8540000  23.1820000
  38.6380000  32.7850000  22.1000000  38.0060000  33.7770000  23.4350000
  39.9190000  32.8540000  23.8400000  39.8130000  32.8910000  24.9240000
  40.4320000  31.9350000  23.5570000  40.7600000  34.0360000  23.3940000
  41.9750000  34.0080000  23.6240000  40.1400000  35.0070000  22.7750000
  40.6590000  35.8140000  22.4600000  39.1450000  34.9450000  22.6150000
  36.3340000  31.7420000  23.0870000  35.5740000  32.6180000  23.4830000
  36.0000000  30.8600000  22.1720000  36.6820000  30.1620000  21.9130000
  34.7380000  30.8750000  21.4730000  34.3970000  31.9040000  21.3570000
  34.8760000  30.2370000  20.0660000  35.0680000  29.1730000  20.2050000
  33.9250000  30.3700000  19.5500000  36.0120000  30.8600000  19.2210000
  35.8130000  31.9220000  19.0740000  36.9720000  30.7370000  19.7220000
  36.0830000  30.1940000  17.8750000  35.0480000  29.7020000  17.3930000
  37.2280000  30.1260000  17.2330000  37.2710000  29.6780000  16.3290000
  38.0600000  30.5220000  17.6470000  33.5890000  30.1890000  22.1810000
  33.5800000  29.0090000  22.4990000  32.4780000  30.9170000  22.2690000
  32.5120000  31.9120000  22.0970000  31.2000000  30.3290000  22.7800000
  31.3090000  29.2510000  22.9010000  30.8470000  30.9310000  24.1180000
  31.5160000  30.4510000  24.8330000  31.1040000  31.9870000  24.0330000
  29.4120000  30.7960000  24.5980000  28.7630000  31.3690000  23.9360000
  29.1260000  29.7450000  24.5650000  29.2710000  31.3140000  26.0160000
  29.8420000  30.6770000  26.6920000  29.6540000  32.3330000  26.0680000
  27.8750000  31.3170000  26.4430000  27.4760000  30.4320000  26.7220000
  27.1320000  32.4230000  26.5740000  27.6300000  33.6560000  26.4610000
  28.6130000  33.7850000  26.2670000  27.0220000  34.4550000  26.5700000
  25.8100000  32.2990000  26.7320000  25.3910000  31.3800000  26.7510000
  25.2370000  33.1250000  26.8320000  30.2100000  30.5090000  21.6500000
  29.9780000  31.7260000  21.2690000  29.6940000  29.4360000  21.0540000
  29.9790000  28.5080000  21.3310000  28.7620000  29.5730000  19.9060000
  28.7790000  30.6030000  19.5510000  29.1510000  28.6550000  18.7550000
  29.2140000  27.6810000  19.2400000  28.2990000  28.6680000  18.0750000
  30.4160000  28.9120000  17.9800000  31.2380000  29.0960000  18.6720000
  30.7380000  27.6930000  17.1220000  29.9170000  27.5090000  16.4290000
  31.6540000  27.8760000  16.5590000  30.8740000  26.8220000  17.7630000
  30.2050000  30.1680000  17.1290000  29.9840000  31.0150000  17.7790000
  31.1090000  30.3760000  16.5570000  29.3710000  30.0080000  16.4450000
  27.3310000  29.3170000  20.3640000  27.1010000  28.3460000  21.0970000
  26.4360000  30.2320000  20.0040000  26.7370000  31.0060000  19.4300000
  25.0340000  30.1700000  20.4010000  24.7730000  29.2550000  20.9320000
  24.6390000  31.4260000  21.2860000  24.7290000  32.3230000  20.6730000
  23.1810000  31.3090000  21.8240000  23.0900000  30.4130000  22.4370000
  22.9440000  32.1860000  22.4260000  22.4880000  31.2460000  20.9850000
  25.6460000  31.6700000  22.4210000  26.6150000  31.8930000  21.9750000
  25.3060000  32.5290000  22.9990000  25.7780000  30.4360000  23.3560000
  26.1180000  29.5760000  22.7780000  26.5000000  30.6520000  24.1440000
  24.8090000  30.2130000  23.8030000  24.1010000  30.1490000  19.1960000
  24.1960000  30.9480000  18.2870000  23.1410000  29.1870000  19.2410000
  23.1200000  28.5270000  20.0050000  22.1260000  29.0620000  18.1830000
  21.9960000  30.0380000  17.7160000  22.4940000  28.0570000  17.1090000
  23.4140000  28.3530000  16.6050000  22.6340000  27.0840000  17.5790000
  21.4470000  27.8690000  16.0260000  21.3250000  28.8130000  15.0050000
  21.9820000  29.6830000  14.9950000  20.3690000  28.6480000  14.0010000
  20.2090000  29.3910000  13.2200000  19.5930000  27.4650000  14.0210000
  18.9110000  27.2940000  13.1880000  19.6770000  26.5390000  15.0510000
  19.0160000  25.6730000  15.0920000  20.6380000  26.7350000  16.0530000
  20.7510000  26.0010000  16.8510000  20.8350000  28.6290000  18.9040000
  20.8210000  27.7340000  19.7490000  19.8100000  29.3780000  18.5780000
  19.9740000  30.1910000  18.0020000  18.4430000  29.1430000  19.0830000
  17.8200000  30.0170000  18.8960000  17.8640000  27.9770000  18.3460000
  18.4720000  27.0910000  18.5310000  16.8460000  27.7970000  18.6920000
  17.8510000  28.1920000  17.2770000  18.4530000  28.9410000  20.5910000
  17.8600000  27.9940000  21.1280000  19.1720000  29.8080000  21.2430000
  19.6110000  30.4930000  20.6450000  19.3990000  29.8940000  22.6550000
  19.9990000  30.7910000  22.8060000  18.4170000  30.0340000  23.1070000
  20.0830000  28.7290000  23.3210000  19.9910000  28.5840000  24.5610000
  20.8010000  27.9310000  22.5780000  20.8920000  28.1280000  21.5920000
  21.5500000  26.7960000  23.1330000  21.2810000  26.6630000  24.1810000
  21.2420000  25.5190000  22.3910000  21.5280000  25.6810000  21.3520000
  21.8720000  24.7420000  22.8240000  19.7620000  25.0770000  22.4550000
  19.4840000  24.7830000  23.4670000  19.1000000  25.8730000  22.1140000
  19.6340000  23.8850000  21.5310000  20.6320000  23.5850000  21.2100000
  19.1680000  23.0670000  22.0810000  18.7910000  24.2210000  20.3130000
  19.2400000  25.0330000  19.7420000  18.6720000  23.3490000  19.6710000
  17.4400000  24.6550000  20.8270000  17.5500000  25.4640000  21.4220000
  16.8430000  24.8900000  20.0470000  17.0230000  23.9020000  21.3560000
  23.0460000  27.0870000  22.9130000  23.3830000  27.6270000  21.8700000
  23.8800000  26.7270000  23.8510000  23.5560000  26.3540000  24.7320000
  25.3490000  26.8720000  23.6430000  25.5460000  27.7540000  23.0340000
  26.0700000  27.0250000  24.9600000  25.6150000  27.8320000  25.5340000
  26.0010000  26.0950000  25.5240000  27.5530000  27.3560000  24.6950000
  28.0340000  26.5270000  24.1760000  27.6450000  28.2620000  24.0960000
  28.2620000  27.5760000  26.0200000  29.1890000  26.8400000  26.3350000
  27.7770000  28.5850000  26.7390000  28.1870000  28.8050000  27.6350000
  27.0010000  29.1260000  26.3850000  25.7430000  25.5860000  22.9220000
  25.3250000  24.4890000  23.3780000  26.4650000  25.6890000  21.8330000
  26.6920000  26.6090000  21.4830000  26.8260000  24.5210000  21.0120000
  26.0270000  23.7800000  21.0200000  27.0430000  24.9920000  19.5710000
  27.9720000  25.5610000  19.5820000  27.1780000  24.0890000  18.9760000
  25.9310000  25.8440000  18.9590000  25.8880000  26.8010000  19.4790000
  26.2030000  26.0830000  17.4710000  26.2450000  25.1260000  16.9510000
  25.4030000  26.6910000  17.0480000  27.1540000  26.6020000  17.3540000
  24.5770000  25.1900000  19.0790000  24.3410000  25.0330000  20.1310000
  23.8210000  25.8340000  18.6300000  24.5890000  24.2300000  18.5630000
  27.9940000  23.7810000  21.6430000  28.9040000  24.4440000  22.0980000
  27.9420000  22.4480000  21.6480000  27.1670000  21.9530000  21.2290000
  29.0150000  21.6570000  22.2880000  29.5970000  22.2650000  22.9810000
  28.3480000  20.5400000  23.0660000  27.7760000  21.0430000  23.8460000
  27.6640000  20.0730000  22.3570000  29.2470000  19.4560000  23.7050000
  29.2770000  18.5850000  23.0510000  30.2520000  19.8640000  23.8110000
  28.7220000  19.0470000  25.0660000  29.1390000  18.1320000  25.7460000
  27.7770000  19.8420000  25.3670000  29.9420000  21.1060000  21.2400000
  29.4700000  20.6770000  20.1900000  31.2330000  21.0900000  21.4590000
  31.5250000  21.5100000  22.3300000  32.2620000  20.6700000  20.5140000
  32.3000000  21.3410000  19.6550000  33.6380000  20.7160000  21.2420000
  33.4830000  20.3060000  22.2400000  34.3560000  20.0970000  20.7030000
  34.1740000  22.1290000  21.3540000  35.2520000  22.3220000  21.9580000
  33.5440000  23.0860000  20.8830000  32.1280000  19.3640000  19.7500000
  32.5460000  19.3170000  18.5580000  31.6970000  18.3110000  20.4060000
  31.4380000  18.4420000  21.3730000  31.5680000  16.9620000  19.8250000
  32.4280000  16.8220000  19.1700000  31.6260000  16.2580000  20.6560000
  30.3200000  16.6980000  19.0510000  30.1980000  15.6570000  18.3660000
  29.3400000  17.5940000  19.0760000  29.4330000  18.4150000  19.6570000
  28.1080000  17.4390000  18.2760000  27.8540000  16.3810000  18.2150000
  26.9260000  18.1910000  18.8920000  27.1610000  19.2540000  18.8430000
  26.0550000  17.9830000  18.2710000  26.6210000  17.7990000  20.3520000
  27.5280000  17.7760000  20.9560000  25.9000000  18.4800000  20.8050000
  26.0100000  16.3700000  20.2800000  25.0590000  16.2960000  20.8080000
  25.8840000  16.0220000  19.2550000  26.9750000  15.5210000  20.9420000
  27.1100000  15.9290000  21.8560000  27.6030000  14.4230000  20.6550000
  27.4790000  13.7330000  19.5370000  26.8490000  14.0550000  18.8160000
  28.0140000  12.8860000  19.4080000  28.5190000  13.9670000  21.5500000
  28.6880000  14.4820000  22.4020000  29.0270000  13.1150000  21.3590000
  28.3750000  17.9990000  16.8870000  29.3260000  18.7860000  16.6900000
  27.5100000  17.6890000  15.9540000  26.7490000  17.0750000  16.2070000
  27.5740000  18.1920000  14.5630000  28.5710000  18.5940000  14.3800000
  27.2990000  17.0550000  13.5330000  27.3410000  17.5300000  12.5530000
  28.2360000  15.8640000  13.5580000  28.1940000  15.3880000  14.5380000
  27.9350000  15.1480000  12.7940000  29.2550000  16.1980000  13.3610000
  25.9250000  16.6110000  13.9130000  25.6470000  15.8980000  13.3330000
  26.4820000  19.2800000  14.4320000  25.6090000  19.3880000  15.2870000
  26.5850000  20.0630000  13.3780000  27.3910000  19.9760000  12.7760000
  25.5940000  21.1090000  13.0720000  25.4930000  21.8060000  13.9040000
  26.0840000  21.8880000  11.8330000  26.0880000  21.1990000  10.9890000
  25.2830000  22.6150000  11.7040000  27.4260000  22.6160000  11.9020000
  28.2130000  21.8880000  12.0990000  27.7180000  23.3410000  10.5780000
  26.9320000  24.0690000  10.3810000  28.6780000  23.8530000  10.6480000
  27.7520000  22.6150000   9.7660000  27.3800000  23.7210000  12.9550000
  27.1630000  23.2850000  13.9300000  28.3430000  24.2290000  12.9910000
  26.6010000  24.4380000  12.6960000  24.2410000  20.4360000  12.8570000
  23.2640000  20.9510000  13.3290000  24.2400000  19.2330000  12.2460000
  25.0650000  18.7810000  11.8780000  22.9240000  18.5830000  12.0250000
  22.2550000  19.2830000  11.5250000  23.0590000  17.3260000  11.1540000
  22.0730000  16.8810000  11.0230000  23.4600000  17.6130000  10.1820000
  23.9140000  16.3950000  11.7550000  23.9850000  15.6180000  11.1960000
  22.2290000  18.2440000  13.3250000  20.9630000  18.2530000  13.3950000
  22.9970000  17.9780000  14.3660000  23.9980000  17.9120000  14.2490000
  22.4180000  17.6380000  15.6930000  21.7760000  16.7650000  15.5740000
  23.4610000  17.3310000  16.7410000  24.1820000  18.1470000  16.6990000
  22.9290000  17.3660000  17.6920000  24.1840000  16.0160000  16.6190000
  25.3030000  15.8940000  17.1520000  23.5720000  15.1070000  15.9750000
  21.4600000  18.7370000  16.1630000  20.4970000  18.5060000  16.9000000
  21.8460000  19.9540000  15.9050000  22.7490000  20.0740000  15.4680000
  21.0790000  21.1490000  16.2510000  20.4500000  20.9780000  17.1250000
  22.0850000  22.2540000  16.5810000  22.7230000  22.4570000  15.7210000
  21.4660000  23.1270000  16.7870000  22.9450000  21.9510000  17.7850000
  24.2720000  21.5440000  17.6440000  24.7010000  21.4280000  16.6490000
  25.0520000  21.2850000  18.7760000  26.0620000  20.8890000  18.6670000
  24.5170000  21.4700000  20.0300000  25.2480000  21.3020000  21.1910000
  26.1580000  21.0450000  21.0270000  23.2040000  21.9070000  20.1920000
  22.7780000  22.0530000  21.1850000  22.4370000  22.1570000  19.0650000
  21.4150000  22.5220000  19.1710000  20.1420000  21.5900000  15.1490000
  19.4990000  22.6450000  15.3210000  19.9930000  20.8840000  14.0490000
  20.5640000  20.0730000  13.8570000  19.0650000  21.3520000  12.9990000
  19.1830000  20.7270000  12.1140000  17.5860000  21.2820000  13.4610000
  17.4760000  20.3660000  14.0410000  17.3720000  22.1420000  14.0960000
  16.5760000  21.2580000  12.3150000  15.4400000  21.8190000  12.3780000
  16.9240000  20.5860000  11.2160000  16.2890000  20.5420000  10.4320000
  17.8210000  20.1240000  11.1730000  19.4420000  22.7450000  12.5100000
  18.5710000  23.6100000  12.2890000  20.7170000  22.9640000  12.2600000
  21.4050000  22.2500000  12.4520000  21.1840000  24.2630000  11.6900000
  20.5570000  25.1070000  11.9780000  22.6500000  24.5160000  12.1720000
  23.1970000  23.5820000  12.0450000  23.3760000  25.6450000  11.4090000
  22.8300000  26.5800000  11.5360000  24.3860000  25.7580000  11.8020000
  23.4250000  25.3950000  10.3490000  22.6620000  24.8190000  13.6990000
  22.1100000  25.7400000  13.8870000  22.1870000  23.9960000  14.2330000
  24.1230000  24.9810000  14.1950000  24.5990000  25.8040000  13.6620000
  24.1230000  25.1930000  15.2640000  24.6750000  24.0600000  14.0080000
  21.1100000  24.1110000  10.1730000  21.8410000  23.1980000   9.6860000
  20.2910000  24.8750000   9.5070000  19.7120000  25.5170000  10.0300000
  20.0810000  24.7730000   8.0330000  20.5380000  23.8600000   7.6510000
  18.5990000  24.7360000   7.7270000  18.1750000  25.5020000   8.3760000
  18.5340000  25.0630000   6.6890000  17.8190000  23.4340000   7.9000000
  18.3850000  22.5790000   7.5300000  17.5840000  23.2850000   8.9540000
  16.5090000  23.5290000   7.1160000  15.4460000  22.9800000   7.4330000
  16.5390000  24.2930000   6.0090000  15.7060000  24.3960000   5.4480000
  17.3950000  24.7600000   5.7440000  20.8220000  25.9140000   7.3320000
  21.3230000  26.8300000   8.0080000  20.9240000  25.8620000   6.0060000
  20.5220000  25.0760000   5.5150000  21.6560000  26.8470000   5.2400000
  22.6920000  26.8200000   5.5780000  21.6310000  26.6420000   3.7310000
  22.0690000  27.5270000   3.2690000  22.2470000  25.7720000   3.5050000
  20.2100000  26.4230000   3.1750000  19.8600000  25.4200000   3.4170000
  19.5230000  27.1580000   3.5950000  20.2680000  26.5890000   1.6560000
  20.1890000  27.6580000   1.4570000  21.2490000  26.2330000   1.3420000
  19.2020000  25.8570000   0.8910000  19.4610000  25.8450000  -0.1680000
  19.1320000  24.8330000   1.2590000  17.8840000  26.5440000   1.0750000
  17.9480000  27.4930000   0.7340000  17.1710000  26.0480000   0.5590000
  17.6440000  26.5540000   2.0560000  21.1270000  28.2400000   5.5740000
  19.9580000  28.4650000   5.8420000  22.0990000  29.1630000   5.6050000
  23.0430000  28.8060000   5.5770000  21.9070000  30.5630000   5.8810000
  22.8720000  31.0690000   5.9020000  21.0230000  31.2230000   4.7840000
  20.1420000  30.6080000   4.5970000  20.7110000  32.2160000   5.1070000
  21.8610000  31.3420000   3.4740000  22.0350000  32.3990000   3.2750000
  22.8160000  30.8400000   3.6270000  21.1560000  30.7260000   2.3110000
  19.9420000  30.7930000   2.1700000  21.9540000  30.1520000   1.5350000
  21.4660000  30.9530000   7.2610000  21.0660000  32.1120000   7.5330000
  21.6740000  30.0340000   8.1910000  22.1030000  29.1640000   7.9090000
  21.4190000  30.2530000   9.6200000  20.3920000  30.5790000   9.7880000
  21.6370000  28.9230000  10.3530000  22.5690000  28.4660000  10.0190000
  21.6830000  29.0970000  11.4280000  20.5440000  28.0470000  10.0590000
  20.6720000  27.2110000  10.5140000  22.5040000  31.2280000  10.1360000
  23.5790000  31.3210000   9.5540000  22.2410000  31.8730000  11.2410000
  21.3230000  31.7840000  11.6520000  23.2120000  32.7620000  11.8910000
  24.1550000  32.7490000  11.3450000  22.6990000  34.2670000  11.9850000
  21.7520000  34.2890000  12.5250000  23.7270000  35.1310000  12.7220000
  24.6740000  35.1100000  12.1820000  23.3650000  36.1570000  12.7800000
  23.8750000  34.7410000  13.7290000  22.4950000  34.6900000  10.5890000
  22.1830000  35.5980000  10.5720000  23.5090000  32.2240000  13.2900000
  22.5440000  31.9420000  14.0340000  24.7900000  32.0210000  13.6180000
  25.5350000  32.2250000  12.9670000  25.1490000  31.6090000  14.9800000
  24.2860000  31.1450000  15.4590000  26.3100000  30.5940000  14.9670000
  27.1780000  31.2290000  14.7880000  26.3680000  30.1750000  15.9710000
  26.2900000  29.4800000  13.9600000  26.4320000  29.9130000  12.9700000
  27.3930000  28.4420000  14.2290000  27.2510000  28.0090000  15.2190000
  27.3420000  27.6540000  13.4770000  28.3680000  28.9270000  14.1810000
  24.9420000  28.8070000  13.9520000  24.1730000  29.5350000  13.6920000
  24.9420000  28.0020000  13.2180000  24.7340000  28.3970000  14.9400000
  25.6980000  32.8760000  15.6690000  26.1580000  33.7300000  14.8940000
  25.6210000  32.9450000  16.9500000  25.2480000  32.1900000  17.5080000
  26.1790000  34.1270000  17.6500000  26.2990000  34.9570000  16.9530000
  25.2140000  34.5650000  18.7800000  24.8860000  33.7470000  19.4210000
  25.6280000  35.3640000  19.3950000  23.9780000  35.1210000  18.1260000
  23.8530000  36.4320000  17.7810000  22.6740000  36.6270000  17.2000000
  22.3690000  37.6110000  16.8430000  22.0450000  35.4550000  17.1730000
  21.1360000  35.2810000  16.7680000  22.8240000  34.5140000  17.7820000
  22.4550000  33.4950000  17.9020000  27.4750000  33.6510000  18.3040000
  27.5070000  32.5870000  18.9580000  28.5250000  34.4470000  18.1890000
  28.4610000  35.2770000  17.6170000  29.8010000  34.1450000  18.8290000
  29.8200000  33.1220000  19.2040000  30.9250000  34.3040000  17.7530000
  30.7860000  33.5320000  16.9960000  30.8080000  35.2860000  17.2960000
  32.3450000  34.1830000  18.3580000  32.4510000  34.8900000  19.1810000
  32.5550000  32.7830000  18.8700000  32.4490000  32.0750000  18.0480000
  33.5550000  32.6980000  19.2960000  31.8130000  32.5610000  19.6370000
  33.3610000  34.4910000  17.2450000  33.1960000  35.5010000  16.8710000
  34.3720000  34.4130000  17.6440000  33.2360000  33.7770000  16.4310000
  30.0520000  35.0420000  20.0040000  30.1050000  36.3050000  19.7880000
  30.1240000  34.5330000  21.1910000  29.8980000  33.5600000  21.3430000
  30.4790000  35.3690000  22.3740000  30.5890000  36.4360000  22.1800000
  29.4720000  35.1810000  23.4980000  29.4310000  34.1160000  23.7250000
  29.8210000  35.9570000  24.7650000  29.8620000  37.0230000  24.5390000
  29.0600000  35.7760000  25.5240000  30.7910000  35.6270000  25.1380000
  28.0490000  35.4540000  23.0710000  27.7740000  34.7740000  22.2650000
  27.3800000  35.3020000  23.9180000  27.9650000  36.4830000  22.7220000
  31.9010000  34.9100000  22.7280000  32.1900000  33.6960000  22.6350000
  32.7630000  35.8310000  23.0900000  32.5110000  36.8090000  23.0640000
  34.1450000  35.4720000  23.4810000  34.4280000  34.5040000  23.0680000
  35.1140000  36.5640000  22.9070000  34.4830000  37.3740000  22.5420000
  35.7960000  36.9490000  23.6660000  35.9260000  35.9790000  21.7370000
  36.7610000  35.3900000  22.1170000  35.0030000  35.0840000  20.9200000
  34.1680000  35.6730000  20.5400000  35.5570000  34.6570000  20.0840000
  34.6230000  34.2810000  21.5510000  36.5330000  37.0870000  20.9170000
  37.1940000  37.6840000  21.5450000  37.1040000  36.6590000  20.0930000
  35.7410000  37.7210000  20.5180000  34.2390000  35.3530000  24.9790000
  33.7070000  36.1970000  25.7280000  34.9300000  34.3840000  25.4510000
  35.3720000  33.7520000  24.7990000  35.1610000  34.1740000  26.8960000
  34.5850000  34.8930000  27.4790000  34.7170000  32.7600000  27.2860000
  33.7750000  32.8370000  27.8290000  34.5630000  32.1870000  26.3710000
  35.7520000  32.0540000  28.1600000  36.7500000  32.3510000  27.8370000
  35.6030000  32.3520000  29.1980000  35.6120000  30.5770000  28.0440000
  36.5850000  30.0940000  28.1300000  34.9470000  30.1950000  28.8190000
  35.0400000  30.2520000  26.7300000  35.0660000  30.8580000  25.9230000
  34.3380000  29.1030000  26.6500000  34.1100000  28.4370000  27.7680000
  34.4600000  28.7950000  28.6460000  33.5870000  27.5730000  27.7400000
  34.0140000  28.6570000  25.4570000  34.2920000  29.1740000  24.6350000
  33.4890000  27.7990000  25.3670000  36.6710000  34.2960000  27.0890000
  37.3050000  33.2330000  26.7950000  37.1970000  35.3970000  27.5130000
  36.6420000  36.2340000  27.6200000  38.6680000  35.5020000  27.6800000
  39.1860000  34.8510000  26.9750000  39.0800000  36.9410000  27.4060000
  38.2050000  37.5210000  27.7010000  39.8970000  37.1380000  28.1000000
  39.5020000  37.3400000  26.0020000  40.5540000  37.0810000  25.8830000
  38.6840000  36.6470000  24.9230000  37.6320000  36.9060000  25.0410000
  39.0290000  36.9700000  23.9410000  38.8040000  35.5670000  25.0130000
  39.3370000  38.8540000  25.8620000  39.9640000  39.3580000  26.5980000
  39.6350000  39.1610000  24.8600000  38.2940000  39.1230000  26.0290000
  39.0760000  34.9310000  29.0310000  38.2970000  34.9460000  29.9960000
  40.2940000  34.4120000  29.0450000  40.8330000  34.3890000  28.1910000
  40.8730000  33.8020000  30.2530000  40.0720000  33.5500000  30.9480000
  41.6510000  32.5290000  29.9230000  41.2320000  32.1420000  28.9940000
  42.6840000  32.8330000  29.7560000  41.6080000  31.4440000  30.9890000
  42.3460000  31.7000000  31.7490000  40.6120000  31.4580000  31.4320000
  41.8960000  30.0800000  30.4560000  41.3150000  29.3500000  31.0200000
  41.6060000  30.0420000  29.4060000  43.3110000  29.7350000  30.5630000
  43.6440000  29.3080000  31.4150000  44.1740000  29.9050000  29.5540000
  43.7540000  30.3120000  28.3560000  42.7730000  30.4950000  28.2040000
  44.4190000  30.4350000  27.6060000  45.4770000  29.7260000  29.7630000
  45.8070000  29.4630000  30.6810000  46.1300000  29.8540000  29.0030000
  41.7650000  34.8290000  30.9440000  42.9450000  34.9940000  30.5830000
  41.1650000  35.5310000  31.8980000  40.1890000  35.3510000  32.0880000
  41.8450000  36.5500000  32.6860000  41.8150000  36.2240000  33.7260000
  42.8800000  36.5810000  32.3450000  41.2510000  37.9410000  32.5880000
  41.1020000  38.5230000  31.5000000  40.9460000  38.4720000  33.7570000
  41.1230000  37.9080000  34.5760000  40.3730000  39.8130000  33.9440000
  41.0910000  40.5790000  33.6500000  39.4630000  39.9240000  33.3550000
  40.0310000  39.9920000  35.4320000  38.9330000  40.5250000  35.6870000
  40.8160000  39.6210000  36.3020000
