%VERSION  VERSION_STAMP = V0001.000  DATE = 09/04/26  02:30:51                  
%FLAG TITLE                                                                     
%FORMAT(20a4)                                                                   
default_name                                                                    
%FLAG POINTERS                                                                  
%FORMAT(10I8)                                                                   
     127      14      45      91     101     140     227     278       0       0
     704       4      91     140     278      46      94      62      27       0
       0       0       0       0       0       0       0       0      34       0
       0
%FLAG ATOM_NAME                                                                 
%FORMAT(20a4)                                                                   
HO5'O5' C5' H5' H5''C4' H4' O4' C1' H1' N9  C8  H8  N7  C5  C6  N6  H61 H62 N1  
C2  H2  N3  C4  C3' H3' C2' H2' O2' HO2'O3' P   OP1 OP2 O5' C5' H5' H5''C4' H4' 
O4' C1' H1' N1  C6  H6  C5  H5  C4  N4  H41 H42 N3  C2  O2  C3' H3' C2' H2' O2' 
HO2'O3' P   OP1 OP2 O5' C5' H5' H5''C4' H4' O4' C1' H1' N9  C8  H8  N7  C5  C6  
O6  N1  H1  C2  N2  H21 H22 N3  C4  C3' H3' C2' H2' O2' HO2'O3' P   OP1 OP2 O5' 
C5' H5' H5''C4' H4' O4' C1' H1' N1  C6  H6  C5  H5  C4  O4  N3  H3  C2  O2  C3' 
H3' C2' H2' O2' HO2'O3' HO3'
%FLAG CHARGE                                                                    
%FORMAT(5E16.8)                                                                 
  7.82647785E+00 -1.13397373E+01  1.01680434E+00  1.23729417E+00  1.23729417E+00
  1.94067495E+00  2.13929802E+00 -6.46527204E+00  7.17958620E-01  3.65721561E+00
 -4.57379730E-01  3.65539338E+00  2.82992319E+00 -1.10664028E+01  9.38448450E-01
  1.27720101E+01 -1.64346924E+01  7.49847645E+00  7.49847645E+00 -1.38762815E+01
  1.07056013E+01  8.61914790E-01 -1.27501433E+01  5.56326819E+00  3.68454906E+00
  1.12067145E+00  1.22089410E+00  1.77120756E+00 -1.11866700E+01  7.62785478E+00
 -9.55941858E+00  2.12508463E+01 -1.41405048E+01 -1.41405048E+01 -9.09110547E+00
  1.01680434E+00  1.23729417E+00  1.23729417E+00  1.94067495E+00  2.13929802E+00
 -6.46527204E+00  1.20267180E-01  3.69730467E+00 -8.81959320E-01  9.65781900E-02
  3.56792634E+00 -9.50292945E+00  3.51325944E+00  1.49149526E+01 -1.73658519E+01
  7.71532182E+00  7.71532182E+00 -1.38197923E+01  1.37359697E+01 -1.13925820E+01
  3.68454906E+00  1.12067145E+00  1.22089410E+00  1.77120756E+00 -1.11866700E+01
  7.62785478E+00 -9.55941858E+00  2.12508463E+01 -1.41405048E+01 -1.41405048E+01
 -9.09110547E+00  1.01680434E+00  1.23729417E+00  1.23729417E+00  1.94067495E+00
  2.13929802E+00 -6.46527204E+00  3.48045930E-01  3.65539338E+00  8.96537160E-01
  2.50374402E+00  2.98845720E+00 -1.04031111E+01  3.17796912E+00  8.69203710E+00
 -1.01990213E+01 -8.72301501E+00  6.23931552E+00  1.39528151E+01 -1.76246086E+01
  7.95221172E+00  7.95221172E+00 -1.15219603E+01  2.22676506E+00  3.68454906E+00
  1.12067145E+00  1.22089410E+00  1.77120756E+00 -1.11866700E+01  7.62785478E+00
 -9.55941858E+00  2.12508463E+01 -1.41405048E+01 -1.41405048E+01 -9.09110547E+00
  1.01680434E+00  1.23729417E+00  1.23729417E+00  1.94067495E+00  2.13929802E+00
 -6.46527204E+00  1.22818302E+00  3.32374752E+00  7.61692140E-01 -2.05183098E+00
  3.98703924E+00 -6.62380605E+00  3.30005853E+00  1.08459130E+01 -1.04978670E+01
 -6.46709427E+00  5.74731342E+00  8.54079201E+00 -9.98035371E+00  3.68454906E+00
  1.12067145E+00  1.22089410E+00  1.77120756E+00 -1.11866700E+01  7.62785478E+00
 -1.19192064E+01  7.97407848E+00
%FLAG ATOMIC_NUMBER                                                             
%FORMAT(10I8)                                                                   
       1       8       6       1       1       6       1       8       6       1
       7       6       1       7       6       6       7       1       1       7
       6       1       7       6       6       1       6       1       8       1
       8      15       8       8       8       6       1       1       6       1
       8       6       1       7       6       1       6       1       6       7
       1       1       7       6       8       6       1       6       1       8
       1       8      15       8       8       8       6       1       1       6
       1       8       6       1       7       6       1       7       6       6
       8       7       1       6       7       1       1       7       6       6
       1       6       1       8       1       8      15       8       8       8
       6       1       1       6       1       8       6       1       7       6
       1       6       1       6       8       7       1       6       8       6
       1       6       1       8       1       8       1
%FLAG MASS                                                                      
%FORMAT(5E16.8)                                                                 
  1.00800000E+00  1.60000000E+01  1.20100000E+01  1.00800000E+00  1.00800000E+00
  1.20100000E+01  1.00800000E+00  1.60000000E+01  1.20100000E+01  1.00800000E+00
  1.40100000E+01  1.20100000E+01  1.00800000E+00  1.40100000E+01  1.20100000E+01
  1.20100000E+01  1.40100000E+01  1.00800000E+00  1.00800000E+00  1.40100000E+01
  1.20100000E+01  1.00800000E+00  1.40100000E+01  1.20100000E+01  1.20100000E+01
  1.00800000E+00  1.20100000E+01  1.00800000E+00  1.60000000E+01  1.00800000E+00
  1.60000000E+01  3.09700000E+01  1.60000000E+01  1.60000000E+01  1.60000000E+01
  1.20100000E+01  1.00800000E+00  1.00800000E+00  1.20100000E+01  1.00800000E+00
  1.60000000E+01  1.20100000E+01  1.00800000E+00  1.40100000E+01  1.20100000E+01
  1.00800000E+00  1.20100000E+01  1.00800000E+00  1.20100000E+01  1.40100000E+01
  1.00800000E+00  1.00800000E+00  1.40100000E+01  1.20100000E+01  1.60000000E+01
  1.20100000E+01  1.00800000E+00  1.20100000E+01  1.00800000E+00  1.60000000E+01
  1.00800000E+00  1.60000000E+01  3.09700000E+01  1.60000000E+01  1.60000000E+01
  1.60000000E+01  1.20100000E+01  1.00800000E+00  1.00800000E+00  1.20100000E+01
  1.00800000E+00  1.60000000E+01  1.20100000E+01  1.00800000E+00  1.40100000E+01
  1.20100000E+01  1.00800000E+00  1.40100000E+01  1.20100000E+01  1.20100000E+01
  1.60000000E+01  1.40100000E+01  1.00800000E+00  1.20100000E+01  1.40100000E+01
  1.00800000E+00  1.00800000E+00  1.40100000E+01  1.20100000E+01  1.20100000E+01
  1.00800000E+00  1.20100000E+01  1.00800000E+00  1.60000000E+01  1.00800000E+00
  1.60000000E+01  3.09700000E+01  1.60000000E+01  1.60000000E+01  1.60000000E+01
  1.20100000E+01  1.00800000E+00  1.00800000E+00  1.20100000E+01  1.00800000E+00
  1.60000000E+01  1.20100000E+01  1.00800000E+00  1.40100000E+01  1.20100000E+01
  1.00800000E+00  1.20100000E+01  1.00800000E+00  1.20100000E+01  1.60000000E+01
  1.40100000E+01  1.00800000E+00  1.20100000E+01  1.60000000E+01  1.20100000E+01
  1.00800000E+00  1.20100000E+01  1.00800000E+00  1.60000000E+01  1.00800000E+00
  1.60000000E+01  1.00800000E+00
%FLAG ATOM_TYPE_INDEX                                                           
%FORMAT(10I8)                                                                   
       1       2       3       4       4       3       4       5       3       6
       7       8       9       7       8       8       7      10      10       7
       8       9       7       8       3       4       3       4       2       1
       5      11      12      12       5       3       4       4       3       4
       5       3       6       7       8      13       8      14       8       7
      10      10       7       8      12       3       4       3       4       2
       1       5      11      12      12       5       3       4       4       3
       4       5       3       6       7       8       9       7       8       8
      12       7      10       8       7      10      10       7       8       3
       4       3       4       2       1       5      11      12      12       5
       3       4       4       3       4       5       3       6       7       8
      13       8      14       8      12       7      10       8      12       3
       4       3       4       2       1       2       1
%FLAG NUMBER_EXCLUDED_ATOMS                                                     
%FORMAT(10I8)                                                                   
       5       7      10       5       4      12       6      11      15       7
      12       7       3       6       8       8       5       2       1       4
       3       2       1       1      10       5       5       3       2       1
       5       7       3       2       7      10       5       4      12       6
      11      15       7      12       9       4       7       3       6       4
       2       1       2       2       1      10       5       5       3       2
       1       5       7       3       2       7      10       5       4      12
       6      11      15       7      12       7       3       6       7       7
       4       7       3       5       4       2       1       1       1      10
       5       5       3       2       1       5       7       3       2       7
      10       5       4      12       6      11      15       7      13       9
       4       6       3       5       3       3       2       2       1       7
       5       5       3       2       1       1       1
%FLAG NONBONDED_PARM_INDEX                                                      
%FORMAT(10I8)                                                                   
       1       2       4       7      11      16      22      29      37      46
      56      67      79      92       2       3       5       8      12      17
      23      30      38      47      57      68      80      93       4       5
       6       9      13      18      24      31      39      48      58      69
      81      94       7       8       9      10      14      19      25      32
      40      49      59      70      82      95      11      12      13      14
      15      20      26      33      41      50      60      71      83      96
      16      17      18      19      20      21      27      34      42      51
      61      72      84      97      22      23      24      25      26      27
      28      35      43      52      62      73      85      98      29      30
      31      32      33      34      35      36      44      53      63      74
      86      99      37      38      39      40      41      42      43      44
      45      54      64      75      87     100      46      47      48      49
      50      51      52      53      54      55      65      76      88     101
      56      57      58      59      60      61      62      63      64      65
      66      77      89     102      67      68      69      70      71      72
      73      74      75      76      77      78      90     103      79      80
      81      82      83      84      85      86      87      88      89      90
      91     104      92      93      94      95      96      97      98      99
     100     101     102     103     104     105
%FLAG RESIDUE_LABEL                                                             
%FORMAT(20a4)                                                                   
A5  C   G   U3  
%FLAG RESIDUE_POINTER                                                           
%FORMAT(10I8)                                                                   
       1      32      63      97
%FLAG BOND_FORCE_CONSTANT                                                       
%FORMAT(5E16.8)                                                                 
  2.30000000E+02  5.53000000E+02  3.40000000E+02  3.20000000E+02  3.10000000E+02
  3.20000000E+02  4.61000000E+02  3.67000000E+02  5.02000000E+02  4.34000000E+02
  4.81000000E+02  4.83000000E+02  4.69000000E+02  5.20000000E+02  4.14000000E+02
  3.67000000E+02  5.29000000E+02  4.40000000E+02  4.36000000E+02  3.40000000E+02
  3.37000000E+02  3.40000000E+02  3.10000000E+02  3.20000000E+02  5.70000000E+02
  4.57000000E+02  3.67000000E+02  4.27000000E+02  3.67000000E+02  5.49000000E+02
  4.48000000E+02  4.24000000E+02  3.20000000E+02  5.25000000E+02  4.34000000E+02
  4.27000000E+02  4.18000000E+02  4.47000000E+02  3.67000000E+02  5.29000000E+02
  4.40000000E+02  3.67000000E+02  4.10000000E+02  3.67000000E+02  5.49000000E+02
  4.48000000E+02
%FLAG BOND_EQUIL_VALUE                                                          
%FORMAT(5E16.8)                                                                 
  1.61000000E+00  9.60000000E-01  1.09000000E+00  1.41000000E+00  1.52600000E+00
  1.41000000E+00  1.35400000E+00  1.08000000E+00  1.32400000E+00  1.01000000E+00
  1.34000000E+00  1.33900000E+00  1.40400000E+00  1.37000000E+00  1.39100000E+00
  1.08000000E+00  1.30400000E+00  1.37100000E+00  1.37400000E+00  1.09000000E+00
  1.47500000E+00  1.09000000E+00  1.52600000E+00  1.41000000E+00  1.22900000E+00
  1.35800000E+00  1.08000000E+00  1.43300000E+00  1.08000000E+00  1.35000000E+00
  1.36500000E+00  1.38300000E+00  1.41000000E+00  1.48000000E+00  1.01000000E+00
  1.38100000E+00  1.38800000E+00  1.41900000E+00  1.08000000E+00  1.30400000E+00
  1.37100000E+00  1.08000000E+00  1.44400000E+00  1.08000000E+00  1.35000000E+00
  1.36500000E+00
%FLAG ANGLE_FORCE_CONSTANT                                                      
%FORMAT(5E16.8)                                                                 
  1.00000000E+02  4.50000000E+01  5.00000000E+01  5.00000000E+01  5.50000000E+01
  5.00000000E+01  5.00000000E+01  5.00000000E+01  1.00000000E+02  5.00000000E+01
  7.00000000E+01  7.00000000E+01  3.50000000E+01  7.00000000E+01  6.30000000E+01
  5.00000000E+01  7.00000000E+01  7.00000000E+01  7.00000000E+01  7.00000000E+01
  7.00000000E+01  7.00000000E+01  5.00000000E+01  7.00000000E+01  7.00000000E+01
  5.00000000E+01  5.00000000E+01  7.00000000E+01  7.00000000E+01  7.00000000E+01
  5.00000000E+01  5.00000000E+01  7.00000000E+01  7.00000000E+01  4.00000000E+01
  5.00000000E+01  5.00000000E+01  6.00000000E+01  5.00000000E+01  3.50000000E+01
  5.00000000E+01  5.00000000E+01  4.00000000E+01  5.00000000E+01  5.00000000E+01
  5.50000000E+01  8.00000000E+01  7.00000000E+01  5.00000000E+01  7.00000000E+01
  7.00000000E+01  5.00000000E+01  7.00000000E+01  5.00000000E+01  6.30000000E+01
  5.00000000E+01  7.00000000E+01  7.00000000E+01  8.00000000E+01  7.00000000E+01
  7.00000000E+01  5.00000000E+01  5.00000000E+01  1.40000000E+02  1.00000000E+02
  7.00000000E+01  5.00000000E+01  7.00000000E+01  7.00000000E+01  8.00000000E+01
  6.30000000E+01  5.00000000E+01  7.00000000E+01  8.00000000E+01  7.00000000E+01
  7.00000000E+01  5.00000000E+01  7.00000000E+01  7.00000000E+01  5.00000000E+01
  7.00000000E+01  7.00000000E+01  7.00000000E+01  5.00000000E+01  8.00000000E+01
  7.00000000E+01  5.00000000E+01  7.00000000E+01  5.00000000E+01  6.30000000E+01
  5.00000000E+01  7.00000000E+01  7.00000000E+01  7.00000000E+01
%FLAG ANGLE_EQUIL_VALUE                                                         
%FORMAT(5E16.8)                                                                 
  1.88897066E+00  1.79070858E+00  1.91113635E+00  1.91113635E+00  1.89368305E+00
  1.91113635E+00  1.91113635E+00  1.91113635E+00  2.10312265E+00  2.01498349E+00
  1.93731630E+00  2.25322103E+00  2.09439600E+00  2.08217869E+00  2.04727209E+00
  2.09439600E+00  2.06996138E+00  2.15548255E+00  2.04727209E+00  2.22878641E+00
  2.31081692E+00  1.92684432E+00  2.14762857E+00  1.83957782E+00  1.81165254E+00
  1.91113635E+00  2.14762857E+00  1.98793087E+00  1.85354046E+00  2.20260646E+00
  1.91113635E+00  1.91113635E+00  2.24798504E+00  2.19562514E+00  1.91113635E+00
  1.91113635E+00  1.91113635E+00  1.91113635E+00  1.91113635E+00  1.91113635E+00
  1.91113635E+00  1.91113635E+00  1.91113635E+00  1.91113635E+00  1.91113635E+00
  1.89368305E+00  2.13802925E+00  2.10312265E+00  2.15199189E+00  2.09614133E+00
  2.12057595E+00  2.08916001E+00  2.12232128E+00  2.08916001E+00  2.04203610E+00
  2.07868803E+00  2.11533996E+00  2.06996138E+00  2.11010397E+00  2.11533996E+00
  2.05250808E+00  1.91113635E+00  1.91113635E+00  2.09265067E+00  2.10312265E+00
  1.95826026E+00  2.05948940E+00  2.02458280E+00  2.15199189E+00  2.10486798E+00
  2.08043336E+00  2.03854544E+00  2.18515316E+00  2.24798504E+00  1.94255229E+00
  2.26892900E+00  2.14762857E+00  1.83957782E+00  1.81165254E+00  2.14762857E+00
  1.98793087E+00  2.24798504E+00  2.20609712E+00  2.08916001E+00  2.18689849E+00
  1.99142153E+00  2.08916001E+00  2.12232128E+00  2.08916001E+00  2.10661331E+00
  2.07868803E+00  2.11533996E+00  2.01411082E+00  2.11533996E+00
%FLAG DIHEDRAL_FORCE_CONSTANT                                                   
%FORMAT(5E16.8)                                                                 
  1.85181000E-01  1.25653100E+00  3.54858000E-01  1.17500000E+00  1.44000000E-01
  2.50000000E-01  0.00000000E+00  1.66666667E-01  3.83333333E-01  1.55555556E-01
  1.60000000E-01  2.50000000E-01  1.20000000E+00  0.00000000E+00  6.80000000E+00
  3.50000000E+00  2.40000000E+00  4.80000000E+00  5.45000000E+00  4.15000000E+00
  1.70000000E+00  1.00000000E+01  1.65000000E+00  2.55000000E+00  1.00000000E-01
  3.83000000E-01  9.65610000E-01  1.07403000E+00  4.57540000E-01  3.09170000E-01
  6.50000000E-01  2.00000000E-01  2.50000000E-01  1.80000000E-01  1.17804000E+00
  9.21020000E-02  9.62830000E-01  4.00000000E+00  1.85000000E+00  6.65000000E+00
  1.45000000E+00  1.22506000E+00  1.63459000E+00  9.37470000E-01  3.10330000E-01
  1.50000000E+00  3.00000000E+00  1.35000000E+00  7.05100000E-01  1.06546000E+00
  4.42730000E-01  2.56020000E-01  2.17500000E+00  3.00000000E-01  1.02514000E+00
  1.74876000E+00  5.81500000E-01  3.51480000E-01  0.00000000E+00  1.10000000E+00
  1.00000000E+00  1.05000000E+01
%FLAG DIHEDRAL_PERIODICITY                                                      
%FORMAT(5E16.8)                                                                 
  1.00000000E+00  2.00000000E+00  3.00000000E+00  2.00000000E+00  3.00000000E+00
  1.00000000E+00  3.00000000E+00  3.00000000E+00  3.00000000E+00  3.00000000E+00
  3.00000000E+00  3.00000000E+00  2.00000000E+00  2.00000000E+00  2.00000000E+00
  2.00000000E+00  2.00000000E+00  2.00000000E+00  2.00000000E+00  2.00000000E+00
  2.00000000E+00  2.00000000E+00  2.00000000E+00  2.00000000E+00  2.00000000E+00
  3.00000000E+00  1.00000000E+00  2.00000000E+00  3.00000000E+00  4.00000000E+00
  2.00000000E+00  1.00000000E+00  2.00000000E+00  3.00000000E+00  1.00000000E+00
  2.00000000E+00  3.00000000E+00  2.00000000E+00  2.00000000E+00  2.00000000E+00
  2.00000000E+00  1.00000000E+00  2.00000000E+00  3.00000000E+00  4.00000000E+00
  2.00000000E+00  2.00000000E+00  2.00000000E+00  1.00000000E+00  2.00000000E+00
  3.00000000E+00  4.00000000E+00  2.00000000E+00  3.00000000E+00  1.00000000E+00
  2.00000000E+00  3.00000000E+00  4.00000000E+00  2.00000000E+00  2.00000000E+00
  2.00000000E+00  2.00000000E+00
%FLAG DIHEDRAL_PHASE                                                            
%FORMAT(5E16.8)                                                                 
  5.54929070E-01  6.14285649E+00  6.23514744E+00  0.00000000E+00  0.00000000E+00
  0.00000000E+00  0.00000000E+00  0.00000000E+00  0.00000000E+00  0.00000000E+00
  0.00000000E+00  0.00000000E+00  0.00000000E+00  0.00000000E+00  3.14159400E+00
  3.14159400E+00  3.14159400E+00  3.14159400E+00  3.14159400E+00  3.14159400E+00
  3.14159400E+00  3.14159400E+00  3.14159400E+00  3.14159400E+00  3.14159400E+00
  0.00000000E+00  1.20061600E+00  2.72899799E-01  2.99461452E+00  3.33220149E-01
  0.00000000E+00  3.14159400E+00  3.14159400E+00  0.00000000E+00  3.33317067E+00
  5.15976777E+00  6.07541257E+00  3.14159400E+00  3.14159400E+00  3.14159400E+00
  3.14159400E+00  2.56544660E+00  2.87571043E-01  3.24417403E+00  5.61280675E-01
  3.14159400E+00  3.14159400E+00  3.14159400E+00  1.30473540E+00  1.08709624E-01
  2.94350428E+00  6.93698862E-02  3.14159400E+00  0.00000000E+00  2.61552187E+00
  2.92601084E-01  3.13020398E+00  2.79280725E-01  3.14159400E+00  3.14159400E+00
  3.14159400E+00  3.14159400E+00
%FLAG SCEE_SCALE_FACTOR                                                         
%FORMAT(5E16.8)                                                                 
  1.20000000E+00  1.20000000E+00  1.20000000E+00  1.20000000E+00  1.20000000E+00
  1.20000000E+00  1.20000000E+00  1.20000000E+00  1.20000000E+00  1.20000000E+00
  1.20000000E+00  1.20000000E+00  1.20000000E+00  1.20000000E+00  1.20000000E+00
  1.20000000E+00  1.20000000E+00  1.20000000E+00  1.20000000E+00  1.20000000E+00
  1.20000000E+00  1.20000000E+00  1.20000000E+00  1.20000000E+00  1.20000000E+00
  1.20000000E+00  1.20000000E+00  1.20000000E+00  1.20000000E+00  1.20000000E+00
  1.20000000E+00  1.20000000E+00  1.20000000E+00  1.20000000E+00  1.20000000E+00
  1.20000000E+00  1.20000000E+00  1.20000000E+00  1.20000000E+00  1.20000000E+00
  1.20000000E+00  1.20000000E+00  1.20000000E+00  1.20000000E+00  1.20000000E+00
  1.20000000E+00  1.20000000E+00  1.20000000E+00  1.20000000E+00  1.20000000E+00
  1.20000000E+00  1.20000000E+00  1.20000000E+00  1.20000000E+00  1.20000000E+00
  1.20000000E+00  1.20000000E+00  1.20000000E+00  0.00000000E+00  0.00000000E+00
  0.00000000E+00  0.00000000E+00
%FLAG SCNB_SCALE_FACTOR                                                         
%FORMAT(5E16.8)                                                                 
  2.00000000E+00  2.00000000E+00  2.00000000E+00  2.00000000E+00  2.00000000E+00
  2.00000000E+00  2.00000000E+00  2.00000000E+00  2.00000000E+00  2.00000000E+00
  2.00000000E+00  2.00000000E+00  2.00000000E+00  2.00000000E+00  2.00000000E+00
  2.00000000E+00  2.00000000E+00  2.00000000E+00  2.00000000E+00  2.00000000E+00
  2.00000000E+00  2.00000000E+00  2.00000000E+00  2.00000000E+00  2.00000000E+00
  2.00000000E+00  2.00000000E+00  2.00000000E+00  2.00000000E+00  2.00000000E+00
  2.00000000E+00  2.00000000E+00  2.00000000E+00  2.00000000E+00  2.00000000E+00
  2.00000000E+00  2.00000000E+00  2.00000000E+00  2.00000000E+00  2.00000000E+00
  2.00000000E+00  2.00000000E+00  2.00000000E+00  2.00000000E+00  2.00000000E+00
  2.00000000E+00  2.00000000E+00  2.00000000E+00  2.00000000E+00  2.00000000E+00
  2.00000000E+00  2.00000000E+00  2.00000000E+00  2.00000000E+00  2.00000000E+00
  2.00000000E+00  2.00000000E+00  2.00000000E+00  0.00000000E+00  0.00000000E+00
  0.00000000E+00  0.00000000E+00
%FLAG SOLTY                                                                     
%FORMAT(5E16.8)                                                                 
  0.00000000E+00  0.00000000E+00  0.00000000E+00  0.00000000E+00  0.00000000E+00
  0.00000000E+00  0.00000000E+00  0.00000000E+00  0.00000000E+00  0.00000000E+00
  0.00000000E+00  0.00000000E+00  0.00000000E+00  0.00000000E+00  0.00000000E+00
  0.00000000E+00  0.00000000E+00  0.00000000E+00  0.00000000E+00  0.00000000E+00
  0.00000000E+00  0.00000000E+00  0.00000000E+00  0.00000000E+00  0.00000000E+00
  0.00000000E+00  0.00000000E+00
%FLAG LENNARD_JONES_ACOEF                                                       
%FORMAT(5E16.8)                                                                 
  0.00000000E+00  0.00000000E+00  5.81803229E+05  0.00000000E+00  7.91544157E+05
  1.04308023E+06  0.00000000E+00  4.66922514E+04  6.78771368E+04  3.25969625E+03
  0.00000000E+00  4.58874091E+05  6.28541240E+05  3.63097246E+04  3.61397723E+05
  0.00000000E+00  3.15360051E+04  4.68930885E+04  2.09814978E+03  2.44050579E+04
  1.32801250E+03  0.00000000E+00  7.44975864E+05  9.95480466E+05  6.20665997E+04
  5.89818288E+05  4.24594555E+04  9.44293233E+05  0.00000000E+00  7.01803794E+05
  9.24822270E+05  6.01816484E+04  5.57281136E+05  4.15766412E+04  8.82619071E+05
  8.19971662E+05  0.00000000E+00  4.09427581E+04  5.98885646E+04  2.82099197E+03
  3.17965283E+04  1.80748014E+03  5.46147253E+04  5.30987710E+04  2.43828624E+03
  0.00000000E+00  1.40467023E+03  2.56678134E+03  5.94667300E+01  1.03954408E+03
  3.20009193E+01  2.12601181E+03  2.27577561E+03  4.90239937E+01  1.39982777E-01
  0.00000000E+00  1.98683736E+06  2.54188684E+06  1.81087383E+05  1.58759528E+06
  1.27716552E+05  2.45746558E+06  2.25370349E+06  1.60682053E+05  8.41065839E+03
  6.02589390E+06  0.00000000E+00  4.71003287E+05  6.47841731E+05  3.69471530E+04
  3.70622491E+05  2.47595516E+04  6.06829342E+05  5.74393458E+05  3.23283631E+04
  1.02595236E+03  1.64263766E+06  3.79876399E+05  0.00000000E+00  4.96707306E+04
  7.18621074E+04  3.50301067E+03  3.86654993E+04  2.26273716E+03  6.58473870E+04
  6.37148278E+04  3.03448006E+03  6.63368273E+01  1.90880272E+05  3.93690817E+04
  3.76169105E+03  0.00000000E+00  6.00750218E+04  8.59947003E+04  4.33325458E+03
  4.68711055E+04  2.82099197E+03  7.91627154E+04  7.62451550E+04  3.76169105E+03
  8.90987508E+01  2.26202022E+05  4.77908183E+04  4.64559155E+03  5.71629601E+03
%FLAG LENNARD_JONES_BCOEF                                                       
%FORMAT(5E16.8)                                                                 
  0.00000000E+00  0.00000000E+00  6.99746810E+02  0.00000000E+00  6.93079947E+02
  6.75612247E+02  0.00000000E+00  1.03606917E+02  1.06076943E+02  1.43076527E+01
  0.00000000E+00  5.89183300E+02  5.85549272E+02  8.66220817E+01  4.95732238E+02
  0.00000000E+00  8.51470647E+01  8.81685417E+01  1.14788417E+01  7.10161395E+01
  9.13231543E+00  0.00000000E+00  7.50714425E+02  7.36907417E+02  1.13252061E+02
  6.33305958E+02  9.36708259E+01  8.01323529E+02  0.00000000E+00  6.14502845E+02
  5.99015525E+02  9.40505980E+01  5.19163331E+02  7.81725398E+01  6.53361429E+02
  5.31102864E+02  0.00000000E+00  9.59185913E+01  9.85097219E+01  1.31591746E+01
  8.01410250E+01  1.05333009E+01  1.05031585E+02  8.73413012E+01  1.20953369E+01
  0.00000000E+00  1.79702257E+01  2.06278363E+01  1.93248820E+00  1.46567808E+01
  1.41762397E+00  2.09604198E+01  1.82891803E+01  1.73473071E+00  9.37598976E-02
  0.00000000E+00  1.27682121E+03  1.22636552E+03  2.01468199E+02  1.08210555E+03
  1.69194406E+02  1.34630496E+03  1.08732781E+03  1.87626421E+02  4.34187588E+01
  2.19561270E+03  0.00000000E+00  6.29300710E+02  6.26720080E+02  9.21192136E+01
  5.29252520E+02  7.54103785E+01  6.77220874E+02  5.55666448E+02  8.51921330E+01
  1.53505284E+01  1.16041466E+03  5.64885984E+02  0.00000000E+00  1.05648788E+02
  1.07908863E+02  1.46638650E+01  8.83744760E+01  1.17854122E+01  1.15327881E+02
  9.56748258E+01  1.34932874E+01  2.01792524E+00  2.04498832E+02  9.40124296E+01
  1.50233639E+01  0.00000000E+00  1.16187983E+02  1.18043746E+02  1.63092814E+01
  9.73010751E+01  1.31591746E+01  1.26451907E+02  1.04660679E+02  1.50233639E+01
  2.33864085E+00  2.22617115E+02  1.03580945E+02  1.66953734E+01  1.85196588E+01
%FLAG BONDS_INC_HYDROGEN                                                        
%FORMAT(10I8)                                                                   
      84      87       2      78      81       3      72      75       3      60
      63       8      48      51      10      48      54      10      33      36
      16      24      27      20      15      18       3       6       9      22
       6      12      22       0       3       2     177     180       2     171
     174       3     165     168       3     147     150      10     147     153
      10     138     141      27     132     135      29     123     126      20
     114     117       3     105     108      22     105     111      22     279
     282       2     273     276       3     267     270       3     252     255
      10     252     258      10     243     246      35     225     228      39
     216     219      20     207     210       3     198     201      22     198
     204      22     375     378       2     369     372       2     363     366
       3     357     360       3     345     348      35     333     336      42
     327     330      44     318     321      20     309     312       3     300
     303      22     300     306      22
%FLAG BONDS_WITHOUT_HYDROGEN                                                    
%FORMAT(10I8)                                                                   
      90      93       1      78      84       4      72      78       5      72
      90       6      66      69       7      60      66       9      57      60
       9      45      48      11      45      57      12      42      45      13
      42      69      14      39      42      15      33      39      17      30
      33      18      30      69      19      24      30      21      24      78
       5      21      24       6      15      21       6      15      72       5
       6      15      23       3       6      24     183     186       1     171
     177       4     165     171       5     165     183       6     159     162
      25     156     159      26     144     147      11     144     156      12
     138     144      28     132     138      30     129     132      31     129
     159      32     123     129      21     123     171       5     120     123
       6     114     120       6     114     165       5     105     114      23
     102     105      33      93      96      34      93      99      34      93
     102       1     285     288       1     273     279       4     267     273
       5     267     285       6     261     264       7     249     252      11
     249     261      12     243     249      36     237     240      25     237
     243      37     234     237      38     234     264      14     231     234
      15     225     231      40     222     225      41     222     264      19
     216     222      21     216     273       5     213     216       6     207
     213       6     207     267       5     198     207      23     195     198
      33     186     189      34     186     192      34     186     195       1
     363     369       4     357     363       5     357     375       4     351
     354      25     345     351      37     339     342      25     339     345
      37     333     339      43     327     333      45     324     327      46
     324     351      32     318     324      21     318     363       5     315
     318       6     309     315       6     309     357       5     300     309
      23     297     300      33     288     291      34     288     294      34
     288     297       1
%FLAG ANGLES_INC_HYDROGEN                                                       
%FORMAT(10I8)                                                                   
      81      78      84       3      78      84      87       5      75      72
      78       6      75      72      90       7      72      78      81       6
      63      60      66      10      57      60      63      10      51      48
      54      13      45      48      51      16      45      48      54      16
      36      33      39      23      30      33      36      27      27      24
      30      31      27      24      78      32      24      78      81       6
      21      24      27      36      18      15      21       7      18      15
      72       6      15      72      75       6      12       6      15      39
       9       6      12      40       9       6      15      39       6      15
      18      41       3       6       9      44       3       6      12      44
       0       3       6      46     174     171     177       3     171     177
     180       5     168     165     171       6     168     165     183       7
     165     171     174       6     150     147     153      13     144     147
     150      16     144     147     153      16     141     138     144      49
     135     132     138      52     132     138     141      54     129     132
     135      56     126     123     129      31     126     123     171      32
     123     171     174       6     120     123     126      36     117     114
     120       7     117     114     165       6     114     165     168       6
     111     105     114      39     108     105     111      40     108     105
     114      39     105     114     117      41     102     105     108      62
     102     105     111      62     276     273     279       3     273     279
     282       5     270     267     273       6     270     267     285       7
     267     273     276       6     255     252     258      13     249     252
     255      16     249     252     258      16     246     243     249      67
     237     243     246      72     228     225     231      77     222     225
     228      80     219     216     222      31     219     216     273      32
     216     273     276       6     213     216     219      36     210     207
     213       7     210     207     267       6     207     267     270       6
     204     198     207      39     201     198     204      40     201     198
     207      39     198     207     210      41     195     198     201      62
     195     198     204      62     366     363     369       3     363     369
     372       5     360     357     363       6     360     357     375       3
     357     363     366       6     357     375     378       5     348     345
     351      72     339     345     348      72     336     333     339      84
     330     327     333      87     327     333     336      89     324     327
     330      91     321     318     324      31     321     318     363      32
     318     363     366       6     315     318     321      36     312     309
     315       7     312     309     357       6     309     357     360       6
     306     300     309      39     303     300     306      40     303     300
     309      39     300     309     312      41     297     300     303      62
     297     300     306      62
%FLAG ANGLES_WITHOUT_HYDROGEN                                                   
%FORMAT(10I8)                                                                   
      90      93      96       1      90      93      99       1      90      93
     102       2      78      72      90       4      72      78      84       8
      72      90      93       9      60      66      69      11      57      60
      66      12      48      45      57      14      45      42      69      15
      45      57      60      17      42      45      48      18      42      45
      57      19      42      69      66      20      39      42      45      21
      39      42      69      22      33      30      69      24      33      39
      42      25      30      24      78      26      30      33      39      28
      30      69      42      29      30      69      66      30      24      30
      33      33      24      30      69      34      24      78      72      35
      24      78      84       8      21      15      72       4      21      24
      30      37      21      24      78       4      15      21      24      38
      15      72      78      35      15      72      90       4       6      15
      21      42       6      15      72      43       3       6      15      45
     183     186     189       1     183     186     192       1     183     186
     195       2     171     165     183       4     165     171     177       8
     165     183     186       9     156     159     162      47     147     144
     156      14     144     156     159      48     138     144     147      50
     138     144     156      51     132     129     159      53     132     138
     144      55     129     123     171      26     129     132     138      57
     129     159     156      58     129     159     162      59     123     129
     132      60     123     129     159      61     123     171     165      35
     123     171     177       8     120     114     165       4     120     123
     129      37     120     123     171       4     114     120     123      38
     114     165     171      35     114     165     183       4     105     114
     120      42     105     114     165      43     102     105     114      63
      99      93     102       1      96      93      99      64      96      93
     102       1      93     102     105      65     285     288     291       1
     285     288     294       1     285     288     297       2     273     267
     285       4     267     273     279       8     267     285     288       9
     252     249     261      14     249     261     264      66     243     249
     252      68     243     249     261      69     240     237     243      70
     237     234     264      71     237     243     249      73     234     237
     240      74     234     237     243      75     234     264     261      20
     231     234     237      76     231     234     264      22     225     222
     264      78     225     231     234      79     222     216     273      26
     222     225     231      81     222     264     234      29     222     264
     261      30     216     222     225      82     216     222     264      34
     216     273     267      35     216     273     279       8     213     207
     267       4     213     216     222      37     213     216     273       4
     207     213     216      38     207     267     273      35     207     267
     285       4     198     207     213      42     198     207     267      43
     195     198     207      63     192     186     195       1     189     186
     192      64     189     186     195       1     186     195     198      65
     363     357     375       8     357     363     369       8     345     351
     354      70     342     339     345      70     339     345     351      83
     333     339     342      85     333     339     345      86     327     324
     351      88     327     333     339      90     324     318     363      26
     324     327     333      92     324     351     345      93     324     351
     354      59     318     324     327      94     318     324     351      61
     318     363     357      35     318     363     369       8     315     309
     357       4     315     318     324      37     315     318     363       4
     309     315     318      38     309     357     363      35     309     357
     375       8     300     309     315      42     300     309     357      43
     297     300     309      63     294     288     297       1     291     288
     294      64     291     288     297       1     288     297     300      65
%FLAG DIHEDRALS_INC_HYDROGEN                                                    
%FORMAT(10I8)                                                                   
      81      78      72      90       6      81      78     -72      90       7
      81      78      84      87       8      75      72      78      81      10
      75      72      78      84       6      75      72     -78      84       7
      75      72      90      93       9      72      78      84      87       6
      72      78     -84      87      11      63      60      66      69      15
      54      48      45      57      17      51      48      45      57      17
      45      57      60      63      15      42      45      48      51      17
      42      45      48      54      17      36      33      30      69      21
      36      33      39      42      22      30      24      78      81      10
      27      24      30      33      14      27      24      30      69      14
      27      24      78      72      10      27      24      78      81      10
      27      24      78      84      10      24      30      33      36      21
      24      78      72      75      10      24      78      84      87       6
      24      78     -84      87      11      21      15      72      75       6
      21      15     -72      75       7      21      24      78      81       6
      21      24     -78      81       7      18      15      21      24       9
      18      15      72      75      10      18      15      72      78      10
      18      15      72      90       6      18      15     -72      90       7
      15      21      24      27       9      15      72      78      81      10
      12       6      15      18      10      12       6      15      21       6
      12       6     -15      21       7      12       6      15      72      10
       9       6      15      18      10       9       6      15      21       6
       9       6     -15      21       7       9       6      15      72      10
       6      15      72      75      10       3       6      15      18       6
       3       6     -15      18       7       0       3       6       9       8
       0       3       6      12       8       0       3       6      15       8
     174     171     165     183       6     174     171    -165     183       7
     174     171     177     180       8     168     165     171     174      10
     168     165     171     177       6     168     165    -171     177       7
     168     165     183     186       9     165     171     177     180       6
     165     171    -177     180      11     153     147     144     156      17
     150     147     144     156      17     141     138     144     147      24
     141     138     144     156      24     138     144     147     150      17
     138     144     147     153      17     135     132     129     159      39
     135     132     138     141      40     135     132     138     144      40
     129     123     171     174      10     129     132     138     141      40
     126     123     129     132      14     126     123     129     159      14
     126     123     171     165      10     126     123     171     174      10
     126     123     171     177      10     123     129     132     135      39
     123     171     165     168      10     123     171     177     180       6
     123     171    -177     180      11     120     114     165     168       6
     120     114    -165     168       7     120     123     171     174       6
     120     123    -171     174       7     117     114     120     123       9
     117     114     165     168      10     117     114     165     171      10
     117     114     165     183       6     117     114    -165     183       7
     114     120     123     126       9     114     165     171     174      10
     111     105     114     117      10     111     105     114     120       6
     111     105    -114     120       7     111     105     114     165      10
     108     105     114     117      10     108     105     114     120       6
     108     105    -114     120       7     108     105     114     165      10
     105     114     165     168      10     102     105     114     117       6
     102     105    -114     117       7      93     102     105     108       9
      93     102     105     111       9     276     273     267     285       6
     276     273    -267     285       7     276     273     279     282       8
     270     267     273     276      10     270     267     273     279       6
     270     267    -273     279       7     270     267     285     288       9
     267     273     279     282       6     267     273    -279     282      11
     258     252     249     261      17     255     252     249     261      17
     246     243     249     252      46     246     243     249     261      46
     243     249     252     255      17     243     249     252     258      17
     240     237     243     246      48     234     237     243     246      48
     228     225     222     264      21     228     225     231     234      22
     222     216     273     276      10     219     216     222     225      14
     219     216     222     264      14     219     216     273     267      10
     219     216     273     276      10     219     216     273     279      10
     216     222     225     228      21     216     273     267     270      10
     216     273     279     282       6     216     273    -279     282      11
     213     207     267     270       6     213     207    -267     270       7
     213     216     273     276       6     213     216    -273     276       7
     210     207     213     216       9     210     207     267     270      10
     210     207     267     273      10     210     207     267     285       6
     210     207    -267     285       7     207     213     216     219       9
     207     267     273     276      10     204     198     207     210      10
     204     198     207     213       6     204     198    -207     213       7
     204     198     207     267      10     201     198     207     210      10
     201     198     207     213       6     201     198    -207     213       7
     201     198     207     267      10     198     207     267     270      10
     195     198     207     210       6     195     198    -207     210       7
     186     195     198     201       9     186     195     198     204       9
     366     363     357     375       6     366     363    -357     375       7
     366     363     369     372       8     363     357     375     378       6
     363     357    -375     378      11     360     357     363     366      10
     360     357     363     369       6     360     357    -363     369       7
     360     357     375     378       8     357     363     369     372       6
     357     363    -369     372      11     348     345     351     354      48
     342     339     345     348      48     336     333     339     342      53
     336     333     339     345      53     333     339     345     348      48
     330     327     324     351      39     330     327     333     336      40
     330     327     333     339      40     324     318     363     366      10
     324     327     333     336      40     324     351     345     348      48
     321     318     324     327      14     321     318     324     351      14
     321     318     363     357      10     321     318     363     366      10
     321     318     363     369      10     318     324     327     330      39
     318     363     357     360      10     318     363     369     372       6
     318     363    -369     372      11     315     309     357     360       6
     315     309    -357     360       7     315     318     363     366       6
     315     318    -363     366       7     312     309     315     318       9
     312     309     357     360      10     312     309     357     363      10
     312     309     357     375       6     312     309    -357     375       7
     309     315     318     321       9     309     357     363     366      10
     309     357     375     378       6     309     357    -375     378      11
     306     300     309     312      10     306     300     309     315       6
     306     300    -309     315       7     306     300     309     357      10
     303     300     309     312      10     303     300     309     315       6
     303     300    -309     315       7     303     300     309     357      10
     300     309     357     360      10     297     300     309     312       6
     297     300    -309     312       7     288     297     300     303       9
     288     297     300     306       9      57      66     -60     -63      60
      45      51     -48     -54      61      30      39     -33     -36      60
     144     150    -147    -153      61     132     144    -138    -141      60
     129     138    -132    -135      60     249     255    -252    -258      61
     237     249    -243    -246      61     222     231    -225    -228      60
     339     351    -345    -348      61     327     339    -333    -336      60
     324     333    -327    -330      60
%FLAG DIHEDRALS_WITHOUT_HYDROGEN                                                
%FORMAT(10I8)                                                                   
      90      93     102     105       1      90      93    -102     105       2
      90      93    -102     105       3      84      78      72      90       4
      84      78     -72      90       5      78      72      90      93       9
      72      90      93      96      12      72      90      93      99      12
      72      90      93     102      13      72      90     -93     102      12
      69      30      24      78      14      57      45      42      69      16
      57      60     -66      69      15      48      45      42      69      16
      48      45      57      60      18      45      42      69      66      19
      45      57     -60      66      15      42      45      57      60      18
      42      69     -66      60      20      39      33     -30      69      21
      39      42      45      48      16      39      42      45      57      16
      39      42      69      66      19      33      30      24      78      14
      33      30     -69      42      23      33      30      69      66      23
      33      39      42      45      24      33      39     -42      69      24
      30      24      78      72      10      30      24      78      84      10
      30      33     -39      42      22      30      69     -42      39      19
      30      69      42      45      19      30      69      66      60      20
      24      21     -15      72      25      24      21     -15      72      26
      24      30      33      39      21      24      30      69      42      23
      24      30      69      66      23      24      78      72      90      10
      21      15     -72      78      10      21      15      72      90       4
      21      15     -72      90       5      21      24      30      33      27
      21      24     -30      33      28      21      24     -30      33      29
      21      24     -30      33      30      21      24      30      69      14
      21      24     -78      72      10      21      24      78      84       4
      21      24     -78      84       5      15      21      24      30      31
      15      21     -24      30      26      15      21     -24      78      25
      15      21     -24      78      26      15      72     -78      24      32
      15      72     -78      24      33      15      72     -78      24      34
      15      72      78      84      10      15      72      90      93       9
       6      15      21      24      25       6      15     -21      24      26
       6      15      72      78      32       6      15     -72      78      33
       6      15     -72      78      34       6      15      72      90      10
       3       6      15      21      10       3       6      15      72      35
       3       6     -15      72      36       3       6     -15      72      37
     183     186     195     198       1     183     186    -195     198       2
     183     186    -195     198       3     177     171     165     183       4
     177     171    -165     183       5     171     165     183     186       9
     165     183     186     189      12     165     183     186     192      12
     165     183     186     195      13     165     183    -186     195      12
     159     129     123     171      14     147     144     156     159      18
     144     156     159     162      38     138     132     129     159      39
     138     144    -156     159      18     132     129     123     171      14
     132     129     159     156      41     132     129     159     162      41
     132     138     144     147      24     132     138    -144     156      24
     129     123     171     165      10     129     123     171     177      10
     129     132     138     144      40     129     159    -156     144      38
     123     120    -114     165      25     123     120    -114     165      26
     123     129     132     138      39     123     129     159     156      41
     123     129     159     162      41     123     171     165     183      10
     120     114    -165     171      10     120     114     165     183       4
     120     114    -165     183       5     120     123     129     132      42
     120     123    -129     132      43     120     123    -129     132      44
     120     123    -129     132      45     120     123     129     159      14
     120     123    -171     165      10     120     123     171     177       4
     120     123    -171     177       5     114     120     123     129      31
     114     120    -123     129      26     114     120    -123     171      25
     114     120    -123     171      26     114     165    -171     123      32
     114     165    -171     123      33     114     165    -171     123      34
     114     165     171     177      10     114     165     183     186       9
     105     114     120     123      25     105     114    -120     123      26
     105     114     165     171      32     105     114    -165     171      33
     105     114    -165     171      34     105     114     165     183      10
     102     105     114     120      10     102     105     114     165      35
     102     105    -114     165      36     102     105    -114     165      37
      99      93     102     105      12      96      93     102     105      12
      93     102     105     114       9     285     288     297     300       1
     285     288    -297     300       2     285     288    -297     300       3
     279     273     267     285       4     279     273    -267     285       5
     273     267     285     288       9     267     285     288     291      12
     267     285     288     294      12     267     285     288     297      13
     267     285    -288     297      12     264     222     216     273      14
     252     249     261     264      18     243     237     234     264      47
     243     249    -261     264      18     240     237     234     264      47
     240     237     243     249      48     237     234     264     261      19
     237     243     249     252      46     237     243    -249     261      46
     234     237     243     249      48     234     264    -261     249      20
     231     225    -222     264      21     231     234     237     240      47
     231     234     237     243      47     231     234     264     261      19
     225     222     216     273      14     225     222    -264     234      23
     225     222     264     261      23     225     231     234     237      24
     225     231    -234     264      24     222     216     273     267      10
     222     216     273     279      10     222     225    -231     234      22
     222     264    -234     231      19     222     264     234     237      19
     222     264     261     249      20     216     213    -207     267      25
     216     213    -207     267      26     216     222     225     231      21
     216     222     264     234      23     216     222     264     261      23
     216     273     267     285      10     213     207    -267     273      10
     213     207     267     285       4     213     207    -267     285       5
     213     216     222     225      49     213     216    -222     225      50
     213     216    -222     225      51     213     216    -222     225      52
     213     216     222     264      14     213     216    -273     267      10
     213     216     273     279       4     213     216    -273     279       5
     207     213     216     222      31     207     213    -216     222      26
     207     213    -216     273      25     207     213    -216     273      26
     207     267    -273     216      32     207     267    -273     216      33
     207     267    -273     216      34     207     267     273     279      10
     207     267     285     288       9     198     207     213     216      25
     198     207    -213     216      26     198     207     267     273      32
     198     207    -267     273      33     198     207    -267     273      34
     198     207     267     285      10     195     198     207     213      10
     195     198     207     267      35     195     198    -207     267      36
     195     198    -207     267      37     192     186     195     198      12
     189     186     195     198      12     186     195     198     207       9
     369     363     357     375       4     369     363    -357     375       5
     351     324     318     363      14     342     339     345     351      48
     339     345     351     354      48     333     327     324     351      39
     333     339    -345     351      48     327     324     318     363      14
     327     324     351     345      41     327     324     351     354      41
     327     333     339     342      53     327     333    -339     342      54
     327     333    -339     345      53     324     318     363     357      10
     324     318     363     369      10     324     327     333     339      40
     324     351    -345     339      48     318     315    -309     357      25
     318     315    -309     357      26     318     324     327     333      39
     318     324     351     345      41     318     324     351     354      41
     318     363     357     375      10     315     309    -357     363      10
     315     309     357     375       4     315     309    -357     375       5
     315     318     324     327      55     315     318    -324     327      56
     315     318    -324     327      57     315     318    -324     327      58
     315     318     324     351      14     315     318    -363     357      10
     315     318     363     369       4     315     318    -363     369       5
     309     315     318     324      31     309     315    -318     324      26
     309     315    -318     363      25     309     315    -318     363      26
     309     357    -363     318      32     309     357    -363     318      33
     309     357    -363     318      34     309     357     363     369      10
     300     309     315     318      25     300     309    -315     318      26
     300     309     357     363      32     300     309    -357     363      33
     300     309    -357     363      34     300     309     357     375      10
     297     300     309     315      10     297     300     309     357      35
     297     300    -309     357      36     297     300    -309     357      37
     294     288     297     300      12     291     288     297     300      12
     288     297     300     309       9      30      42     -69     -66      59
      42      48     -45     -57      60      39      45     -42     -69      59
      69      33     -30     -24      61     129     156    -159    -162      62
     138     147    -144    -156      60     159     132    -129    -123      61
     234     222    -264    -261      59     252     243    -249    -261      60
     234     243    -237    -240      62     231     237    -234    -264      59
     264     225    -222    -216      61     324     345    -351    -354      62
     333     345    -339    -342      62     351     327    -324    -318      61
%FLAG EXCLUDED_ATOMS_LIST                                                       
%FORMAT(10I8)                                                                   
       2       3       4       5       6       3       4       5       6       7
       8      25       4       5       6       7       8       9      25      26
      27      31       5       6       7       8      25       6       7       8
      25       7       8       9      10      11      25      26      27      28
      29      31      32       8       9      25      26      27      31       9
      10      11      12      24      25      26      27      28      29      31
      10      11      12      13      14      15      23      24      25      26
      27      28      29      30      31      11      12      24      25      27
      28      29      12      13      14      15      16      21      23      24
      25      27      28      29      13      14      15      16      23      24
      27      14      15      24      15      16      17      20      23      24
      16      17      18      19      20      21      23      24      17      18
      19      20      21      22      23      24      18      19      20      21
      24      19      20      20      21      22      23      24      22      23
      24      23      24      24      27      26      27      28      29      30
      31      32      33      34      35      27      28      29      31      32
      28      29      30      31      32      29      30      31      30      31
       0      32      33      34      35      36      33      34      35      36
      37      38      39      34      35      36      35      36      36      37
      38      39      40      41      56      37      38      39      40      41
      42      56      57      58      62      38      39      40      41      56
      39      40      41      56      40      41      42      43      44      56
      57      58      59      60      62      63      41      42      56      57
      58      62      42      43      44      45      54      56      57      58
      59      60      62      43      44      45      46      47      53      54
      55      56      57      58      59      60      61      62      44      45
      54      56      58      59      60      45      46      47      48      49
      53      54      55      56      58      59      60      46      47      48
      49      50      53      54      55      58      47      48      49      54
      48      49      50      51      52      53      54      49      50      53
      50      51      52      53      54      55      51      52      53      54
      52      53      53      54      55      55      58       0      57      58
      59      60      61      62      63      64      65      66      58      59
      60      62      63      59      60      61      62      63      60      61
      62      61      62       0      63      64      65      66      67      64
      65      66      67      68      69      70      65      66      67      66
      67      67      68      69      70      71      72      90      68      69
      70      71      72      73      90      91      92      96      69      70
      71      72      90      70      71      72      90      71      72      73
      74      75      90      91      92      93      94      96      97      72
      73      90      91      92      96      73      74      75      76      89
      90      91      92      93      94      96      74      75      76      77
      78      79      88      89      90      91      92      93      94      95
      96      75      76      89      90      92      93      94      76      77
      78      79      80      84      88      89      90      92      93      94
      77      78      79      80      88      89      92      78      79      89
      79      80      81      82      88      89      80      81      82      83
      84      88      89      81      82      83      84      85      88      89
      82      83      84      89      83      84      85      86      87      88
      89      84      85      88      85      86      87      88      89      86
      87      88      89      87      88      88      89      92      91      92
      93      94      95      96      97      98      99     100      92      93
      94      96      97      93      94      95      96      97      94      95
      96      95      96       0      97      98      99     100     101      98
      99     100     101     102     103     104      99     100     101     100
     101     101     102     103     104     105     106     120     102     103
     104     105     106     107     120     121     122     126     103     104
     105     106     120     104     105     106     120     105     106     107
     108     109     120     121     122     123     124     126     127     106
     107     120     121     122     126     107     108     109     110     118
     120     121     122     123     124     126     108     109     110     111
     112     116     118     119     120     121     122     123     124     125
     126     109     110     118     120     122     123     124     110     111
     112     113     114     116     117     118     119     120     122     123
     124     111     112     113     114     115     116     118     119     122
     112     113     114     118     113     114     115     116     117     118
     114     115     116     115     116     117     118     119     116     117
     118     117     118     119     118     119     119     122       0     121
     122     123     124     125     126     127     122     123     124     126
     127     123     124     125     126     127     124     125     126     125
     126       0     127       0
%FLAG HBOND_ACOEF                                                               
%FORMAT(5E16.8)                                                                 

%FLAG HBOND_BCOEF                                                               
%FORMAT(5E16.8)                                                                 

%FLAG HBCUT                                                                     
%FORMAT(5E16.8)                                                                 

%FLAG AMBER_ATOM_TYPE                                                           
%FORMAT(20a4)                                                                   
HO  OH  CI  H1  H1  CT  H1  OS  CT  H2  N*  C5  H5  NB  CB  CA  N2  H   H   NC  
CQ  H5  NC  CB  CT  H1  CT  H1  OH  HO  OS  P   O2  O2  OS  CI  H1  H1  CT  H1  
OS  CT  H2  N*  C4  H4  C4  HA  CA  N2  H   H   NC  C   O   CT  H1  CT  H1  OH  
HO  OS  P   O2  O2  OS  CI  H1  H1  CT  H1  OS  CT  H2  N*  CP  H5  NB  CB  C   
O   NA  H   CA  N2  H   H   NC  CB  CT  H1  CT  H1  OH  HO  OS  P   O2  O2  OS  
CI  H1  H1  CT  H1  OS  CT  H2  N*  CS  H4  CS  HA  C   O   NA  H   C   O   CT  
H1  CT  H1  OH  HO  OH  HO  
%FLAG TREE_CHAIN_CLASSIFICATION                                                 
%FORMAT(20a4)                                                                   
M   M   M   E   E   M   E   S   3   E   B   S   E   E   B   B   B   E   E   S   
S   E   E   B   M   E   B   E   S   E   M   M   E   E   M   M   E   E   M   E   
S   3   E   B   S   E   S   E   B   B   E   E   S   B   E   M   E   B   E   S   
E   M   M   E   E   M   M   E   E   M   E   S   3   E   B   S   E   E   B   B   
E   B   E   S   B   E   E   E   B   M   E   B   E   S   E   M   M   E   E   M   
M   E   E   M   E   S   3   E   B   S   E   S   E   B   E   B   E   B   E   M   
E   B   E   S   E   M   M   
%FLAG JOIN_ARRAY                                                                
%FORMAT(10I8)                                                                   
       0       0       0       0       0       0       0       0       0       0
       0       0       0       0       0       0       0       0       0       0
       0       0       0       0       0       0       0       0       0       0
       0       0       0       0       0       0       0       0       0       0
       0       0       0       0       0       0       0       0       0       0
       0       0       0       0       0       0       0       0       0       0
       0       0       0       0       0       0       0       0       0       0
       0       0       0       0       0       0       0       0       0       0
       0       0       0       0       0       0       0       0       0       0
       0       0       0       0       0       0       0       0       0       0
       0       0       0       0       0       0       0       0       0       0
       0       0       0       0       0       0       0       0       0       0
       0       0       0       0       0       0       0
%FLAG IROTAT                                                                    
%FORMAT(10I8)                                                                   
       0       0       0       0       0       0       0       0       0       0
       0       0       0       0       0       0       0       0       0       0
       0       0       0       0       0       0       0       0       0       0
       0       0       0       0       0       0       0       0       0       0
       0       0       0       0       0       0       0       0       0       0
       0       0       0       0       0       0       0       0       0       0
       0       0       0       0       0       0       0       0       0       0
       0       0       0       0       0       0       0       0       0       0
       0       0       0       0       0       0       0       0       0       0
       0       0       0       0       0       0       0       0       0       0
       0       0       0       0       0       0       0       0       0       0
       0       0       0       0       0       0       0       0       0       0
       0       0       0       0       0       0       0
%FLAG RADIUS_SET                                                                
%FORMAT(1a80)                                                                   
modified Bondi radii (mbondi)                                                   
%FLAG RADII                                                                     
%FORMAT(5E16.8)                                                                 
  8.00000000E-01  1.50000000E+00  1.70000000E+00  1.30000000E+00  1.30000000E+00
  1.70000000E+00  1.30000000E+00  1.50000000E+00  1.70000000E+00  1.30000000E+00
  1.55000000E+00  1.70000000E+00  1.30000000E+00  1.55000000E+00  1.70000000E+00
  1.70000000E+00  1.55000000E+00  1.30000000E+00  1.30000000E+00  1.55000000E+00
  1.70000000E+00  1.30000000E+00  1.55000000E+00  1.70000000E+00  1.70000000E+00
  1.30000000E+00  1.70000000E+00  1.30000000E+00  1.50000000E+00  8.00000000E-01
  1.50000000E+00  1.85000000E+00  1.50000000E+00  1.50000000E+00  1.50000000E+00
  1.70000000E+00  1.30000000E+00  1.30000000E+00  1.70000000E+00  1.30000000E+00
  1.50000000E+00  1.70000000E+00  1.30000000E+00  1.55000000E+00  1.70000000E+00
  1.30000000E+00  1.70000000E+00  1.30000000E+00  1.70000000E+00  1.55000000E+00
  1.30000000E+00  1.30000000E+00  1.55000000E+00  1.70000000E+00  1.50000000E+00
  1.70000000E+00  1.30000000E+00  1.70000000E+00  1.30000000E+00  1.50000000E+00
  8.00000000E-01  1.50000000E+00  1.85000000E+00  1.50000000E+00  1.50000000E+00
  1.50000000E+00  1.70000000E+00  1.30000000E+00  1.30000000E+00  1.70000000E+00
  1.30000000E+00  1.50000000E+00  1.70000000E+00  1.30000000E+00  1.55000000E+00
  1.70000000E+00  1.30000000E+00  1.55000000E+00  1.70000000E+00  1.70000000E+00
  1.50000000E+00  1.55000000E+00  1.30000000E+00  1.70000000E+00  1.55000000E+00
  1.30000000E+00  1.30000000E+00  1.55000000E+00  1.70000000E+00  1.70000000E+00
  1.30000000E+00  1.70000000E+00  1.30000000E+00  1.50000000E+00  8.00000000E-01
  1.50000000E+00  1.85000000E+00  1.50000000E+00  1.50000000E+00  1.50000000E+00
  1.70000000E+00  1.30000000E+00  1.30000000E+00  1.70000000E+00  1.30000000E+00
  1.50000000E+00  1.70000000E+00  1.30000000E+00  1.55000000E+00  1.70000000E+00
  1.30000000E+00  1.70000000E+00  1.30000000E+00  1.70000000E+00  1.50000000E+00
  1.55000000E+00  1.30000000E+00  1.70000000E+00  1.50000000E+00  1.70000000E+00
  1.30000000E+00  1.70000000E+00  1.30000000E+00  1.50000000E+00  8.00000000E-01
  1.50000000E+00  8.00000000E-01
%FLAG SCREEN                                                                    
%FORMAT(5E16.8)                                                                 
  8.50000000E-01  8.50000000E-01  7.20000000E-01  8.50000000E-01  8.50000000E-01
  7.20000000E-01  8.50000000E-01  8.50000000E-01  7.20000000E-01  8.50000000E-01
  7.90000000E-01  7.20000000E-01  8.50000000E-01  7.90000000E-01  7.20000000E-01
  7.20000000E-01  7.90000000E-01  8.50000000E-01  8.50000000E-01  7.90000000E-01
  7.20000000E-01  8.50000000E-01  7.90000000E-01  7.20000000E-01  7.20000000E-01
  8.50000000E-01  7.20000000E-01  8.50000000E-01  8.50000000E-01  8.50000000E-01
  8.50000000E-01  8.60000000E-01  8.50000000E-01  8.50000000E-01  8.50000000E-01
  7.20000000E-01  8.50000000E-01  8.50000000E-01  7.20000000E-01  8.50000000E-01
  8.50000000E-01  7.20000000E-01  8.50000000E-01  7.90000000E-01  7.20000000E-01
  8.50000000E-01  7.20000000E-01  8.50000000E-01  7.20000000E-01  7.90000000E-01
  8.50000000E-01  8.50000000E-01  7.90000000E-01  7.20000000E-01  8.50000000E-01
  7.20000000E-01  8.50000000E-01  7.20000000E-01  8.50000000E-01  8.50000000E-01
  8.50000000E-01  8.50000000E-01  8.60000000E-01  8.50000000E-01  8.50000000E-01
  8.50000000E-01  7.20000000E-01  8.50000000E-01  8.50000000E-01  7.20000000E-01
  8.50000000E-01  8.50000000E-01  7.20000000E-01  8.50000000E-01  7.90000000E-01
  7.20000000E-01  8.50000000E-01  7.90000000E-01  7.20000000E-01  7.20000000E-01
  8.50000000E-01  7.90000000E-01  8.50000000E-01  7.20000000E-01  7.90000000E-01
  8.50000000E-01  8.50000000E-01  7.90000000E-01  7.20000000E-01  7.20000000E-01
  8.50000000E-01  7.20000000E-01  8.50000000E-01  8.50000000E-01  8.50000000E-01
  8.50000000E-01  8.60000000E-01  8.50000000E-01  8.50000000E-01  8.50000000E-01
  7.20000000E-01  8.50000000E-01  8.50000000E-01  7.20000000E-01  8.50000000E-01
  8.50000000E-01  7.20000000E-01  8.50000000E-01  7.90000000E-01  7.20000000E-01
  8.50000000E-01  7.20000000E-01  8.50000000E-01  7.20000000E-01  8.50000000E-01
  7.90000000E-01  8.50000000E-01  7.20000000E-01  8.50000000E-01  7.20000000E-01
  8.50000000E-01  7.20000000E-01  8.50000000E-01  8.50000000E-01  8.50000000E-01
  8.50000000E-01  8.50000000E-01
%FLAG IPOL                                                                      
%FORMAT(1I8)                                                                    
       0
