
  758  0.0000000e+00
  18.4220000  34.9650000  25.8730000  18.9350000  34.1950000  25.6170000
  19.1300000  33.9210000  24.2190000  19.6810000  34.7580000  23.7910000
  18.1960000  33.7850000  23.6740000  19.9610000  32.6680000  24.1000000
  20.9000000  32.8700000  24.6150000  19.3600000  31.5830000  24.8520000
  19.2310000  30.4820000  23.9440000  20.0820000  29.8130000  24.0730000
  18.0700000  29.6610000  24.3800000  16.8430000  30.1710000  24.1010000
  16.7110000  31.1200000  23.6030000  15.7190000  29.4420000  24.4710000
  14.7320000  29.8210000  24.2040000  15.9170000  28.2260000  25.1200000
  14.8280000  27.4770000  25.4440000  14.9860000  26.5970000  25.9140000
  13.9000000  27.8030000  25.2150000  17.1430000  27.7610000  25.3770000
  18.2240000  28.4540000  25.0150000  19.3600000  28.0140000  25.2140000
  20.1720000  32.1220000  22.6940000  20.0790000  32.9020000  21.9380000
  18.9480000  31.2230000  22.6470000  18.1670000  31.7020000  22.0560000
  19.2140000  30.2690000  22.1920000  21.3500000  31.3250000  22.6810000
  22.4090000  31.2860000  21.4830000  23.5360000  32.1570000  21.8510000
  21.8220000  31.4590000  20.1390000  22.8400000  29.7510000  21.4980000
  23.5430000  29.1750000  22.5940000  23.0170000  29.3580000  23.5310000
  24.5600000  29.5670000  22.6210000  23.4940000  27.7090000  22.2790000
  24.1820000  27.1720000  22.9320000  22.1930000  27.2520000  22.6740000
  21.7210000  26.3040000  21.7160000  21.8750000  25.2570000  21.9760000
  20.2370000  26.4700000  21.7800000  19.5260000  27.5840000  21.4290000
  20.0240000  28.4560000  21.0310000  18.2070000  27.4550000  21.6360000
  18.0830000  26.2120000  22.1420000  16.9040000  25.5250000  22.5450000
  15.7390000  25.9160000  22.5180000  17.1970000  24.2790000  23.0370000
  16.4130000  23.7300000  23.3250000  18.4340000  23.7170000  23.1550000
  18.5080000  22.4560000  23.6680000  17.7400000  21.8840000  23.9870000
  19.4320000  22.0580000  23.7570000  19.5370000  24.3600000  22.7700000
  19.2900000  25.5940000  22.2740000  23.6930000  27.3250000  20.8070000
  23.9750000  28.2020000  20.2250000  22.2730000  26.8850000  20.4160000
  21.9290000  27.4770000  19.5680000  22.2810000  25.8300000  20.1430000
  24.7230000  26.3200000  20.6530000  25.0640000  25.6210000  19.2520000
  26.5060000  25.3160000  19.2200000  24.5590000  26.4120000  18.1150000
  24.2600000  24.2460000  19.3270000  24.5840000  23.2850000  20.3350000
  24.5640000  23.7300000  21.3300000  25.5720000  22.8700000  20.1380000
  23.5230000  22.2330000  20.2450000  23.6220000  21.5230000  21.0660000
  22.2560000  22.8440000  20.4530000  21.2780000  21.9660000  19.9090000
  20.8150000  21.3280000  20.6620000  20.1960000  22.8890000  19.5210000
  20.5370000  24.0480000  18.8990000  21.5580000  24.2970000  18.6510000
  19.5260000  24.9450000  18.5710000  19.7950000  25.8940000  18.1070000
  18.2170000  24.6030000  18.8970000  17.2210000  25.4990000  18.6290000
  16.2760000  25.2370000  18.8710000  17.4380000  26.3890000  18.2030000
  17.9350000  23.4470000  19.5020000  18.9090000  22.5840000  19.8160000
  18.6850000  21.5120000  20.3820000  23.4240000  21.5570000  18.9030000
  23.8500000  22.2160000  18.1470000  21.9300000  21.4060000  18.6610000
  21.7350000  21.3880000  17.5890000  21.5810000  20.4760000  19.1090000
  24.1210000  20.3090000  18.9280000  24.2490000  19.4120000  17.6170000
  25.4200000  18.5350000  17.7650000  24.2080000  20.2960000  16.4400000
  22.9310000  18.5370000  17.6700000  22.7140000  17.6250000  18.7530000
  22.6680000  18.1740000  19.6940000  23.5180000  16.8890000  18.7760000
  21.3930000  16.9600000  18.5050000  21.1560000  16.3240000  19.3580000
  20.3530000  17.9520000  18.4960000  19.7160000  17.9010000  17.2180000
  18.7710000  17.3670000  17.3140000  19.3050000  19.2810000  16.8690000
  20.0170000  20.2630000  16.2320000  21.0340000  20.0990000  15.9090000
  19.3130000  21.3940000  16.0770000  18.1210000  21.1000000  16.6350000
  16.9520000  21.9040000  16.7490000  16.7690000  23.0570000  16.3680000
  15.9330000  21.2140000  17.3520000  15.0650000  21.7050000  17.4290000
  15.9720000  19.9300000  17.8160000  14.8310000  19.4160000  18.3530000
  13.9440000  19.8870000  18.4610000  14.8820000  18.4680000  18.6980000
  17.0680000  19.1790000  17.7170000  18.0840000  19.8250000  17.1210000
  21.2640000  16.2290000  17.1760000  22.2380000  15.8800000  16.8330000
  20.7930000  17.3680000  16.2880000  21.6010000  17.6670000  15.6200000
  19.9370000  17.0400000  15.6980000  20.2840000  15.2140000  17.2380000
  20.3560000  13.9690000  16.2450000  21.1160000  12.8910000  16.8920000
  20.8370000  14.4230000  14.9100000  18.8100000  13.5810000  16.1610000
  18.0150000  13.5690000  17.3620000  18.4380000  14.2250000  18.1230000
  17.9490000  12.5500000  17.7450000  16.6720000  14.0880000  16.9570000
  16.0130000  14.1370000  17.8240000  16.8420000  15.4470000  16.5610000
  15.8510000  15.7320000  15.5690000  14.8560000  16.0580000  15.8710000
  16.3910000  16.9160000  14.8670000  17.6580000  17.1030000  14.3820000
  18.3670000  16.2890000  14.3530000  17.8630000  18.3460000  13.9130000
  16.6730000  18.9530000  14.0980000  16.2300000  20.2790000  13.8190000
  17.0450000  21.2220000  13.2680000  16.6920000  22.1510000  13.0860000
  18.0020000  20.9920000  13.0420000  14.9660000  20.5780000  14.1180000
  14.1780000  19.6520000  14.6690000  13.1550000  19.8890000  14.9200000
  14.4630000  18.3920000  14.9840000  15.7500000  18.1100000  14.6610000
  16.0190000  13.3930000  15.7640000  16.6700000  12.5910000  15.4170000
  15.9520000  14.4980000  14.6960000  16.4280000  14.1480000  13.7800000
  14.9100000  14.7440000  14.4920000  14.7620000  12.7960000  16.1200000
  13.8660000  12.0060000  15.0630000  13.0280000  11.0390000  15.8000000
  14.7150000  11.4990000  13.9680000  12.8790000  13.1110000  14.4800000
  11.8020000  13.5970000  15.2900000  12.1460000  14.0800000  16.2050000
  11.1430000  12.7700000  15.5540000  11.1110000  14.6030000  14.4350000
  10.4660000  15.2560000  15.0240000  12.1520000  15.4600000  13.9620000
  11.6990000  15.9740000  12.7190000  11.0120000  16.8210000  12.7100000
  12.9180000  16.5260000  12.0780000  14.1150000  15.8990000  11.8680000
  14.2310000  14.8430000  12.0600000  15.0490000  16.7140000  11.3560000
  14.4160000  17.9010000  11.2460000  14.8730000  19.1870000  10.8150000
  16.1610000  19.4180000  10.4270000  16.4410000  20.3420000  10.1300000
  16.8340000  18.6650000  10.4370000  13.9990000  20.1910000  10.8520000
  12.7530000  19.9620000  11.2720000  12.0310000  20.7650000  11.2960000
  12.2100000  18.8240000  11.6980000  13.1160000  17.8230000  11.6570000
  10.4170000  14.0700000  13.1870000  10.5120000  12.9850000  13.1500000
  11.2400000  14.6920000  12.0610000  11.6020000  13.9060000  11.3980000
  10.6170000  15.3850000  11.4950000   9.0070000  14.3690000  13.1810000
   8.0810000  14.0500000  11.9150000   6.6680000  13.9600000  12.3420000
   8.6000000  12.8940000  11.1370000   8.2390000  15.3870000  11.0760000
   7.9070000  16.6350000  11.6860000   8.5140000  16.8910000  12.5540000
   6.8630000  16.6200000  12.0000000   8.1620000  17.6280000  10.5980000
   7.9900000  18.6570000  10.9140000   9.5430000  17.5800000  10.2790000
   9.6440000  18.2090000   9.0190000   9.6260000  19.2990000   9.0300000
  11.0210000  17.9030000   8.5650000  11.4650000  16.6160000   8.5940000
  10.8050000  15.8010000   8.8530000  12.7810000  16.3250000   8.2350000
  13.2690000  14.9020000   8.2360000  12.6720000  14.3120000   7.5400000
  14.3150000  14.8760000   7.9300000  13.1740000  14.4850000   9.2390000
  13.6330000  17.3720000   7.8820000  14.8300000  17.2220000   7.6190000
  13.1190000  18.6410000   7.8520000  13.7520000  19.4860000   7.5820000
  11.8220000  18.9230000   8.1760000  11.3830000  20.0770000   8.1430000
   7.4610000  17.2840000   9.2960000   7.1910000  16.2280000   9.3070000
   8.5320000  17.5270000   8.2230000   8.4120000  16.8010000   7.4180000
   8.4230000  18.5350000   7.8220000   6.2510000  18.0340000   9.1620000
   5.3840000  17.9900000   7.8240000   4.0250000  18.4440000   8.1800000
   5.4580000  16.6680000   7.1600000   6.0860000  19.1180000   6.9270000
   6.1460000  20.4780000   7.4180000   6.5870000  20.5610000   8.4110000
   5.1390000  20.8920000   7.4670000   6.9950000  21.2290000   6.4380000
   7.3380000  22.1880000   6.8270000   8.1880000  20.4580000   6.2840000
   8.7360000  20.8550000   5.0340000   9.2480000  21.8150000   4.9670000
   9.8230000  19.8760000   4.7590000   9.5450000  18.5480000   4.9040000
   8.5460000  18.1970000   5.1170000  10.5690000  17.6110000   4.7650000
  10.2610000  16.1400000   4.8960000   9.5330000  15.8520000   4.1380000
  11.1760000  15.5630000   4.7590000   9.8520000  15.9410000   5.8860000
  11.8760000  18.0600000   4.5510000  12.8580000  17.3170000   4.5030000
  12.0940000  19.4030000   4.4120000  13.1020000  19.7950000   4.2810000
  11.0860000  20.3160000   4.4940000  11.3240000  21.5160000   4.3890000
   6.4180000  21.3320000   5.0290000   5.5160000  20.7230000   4.9680000
   7.5130000  20.7180000   4.1390000   7.0610000  20.0190000   3.4350000
   8.0210000  21.5100000   3.5880000   5.9670000  22.6670000   4.6960000
   5.5310000  23.0710000   3.2090000   4.6480000  24.2440000   3.2690000
   5.0100000  21.9050000   2.4700000   6.9260000  23.5470000   2.6110000
   7.6360000  24.6270000   3.2490000   7.8990000  24.3430000   4.2680000
   7.0140000  25.5220000   3.2470000   8.8970000  24.8530000   2.4570000
   9.5340000  25.5530000   2.9970000   9.6380000  23.6270000   2.4480000
  10.2410000  23.4830000   1.1570000  11.2220000  23.9470000   1.0520000
  10.5240000  22.0220000   1.0150000   9.4990000  21.1330000   1.1670000
   8.4700000  21.4400000   1.2790000   9.8030000  19.7750000   1.1770000
   8.9880000  19.0590000   1.2800000  11.1410000  19.3950000   1.0460000
  11.4610000  18.0750000   1.0890000  12.4350000  17.8250000   0.9920000
  10.7390000  17.3800000   1.2140000  12.1060000  20.2970000   0.8730000
  11.8140000  21.6030000   0.8400000  12.6910000  22.4470000   0.6700000
   8.7170000  25.2400000   0.9980000   7.6650000  25.4520000   0.8060000
   9.1260000  23.9650000   0.2530000   8.2820000  23.5980000  -0.3310000
   9.9600000  24.1850000  -0.4130000   9.4700000  26.4140000   0.6670000
   9.0550000  27.3330000  -0.5810000   9.4960000  28.7170000  -0.2580000
   7.6320000  27.1060000  -0.9470000   9.9540000  26.7650000  -1.7710000
  11.3820000  26.9400000  -1.7200000  11.7770000  26.6190000  -0.7560000
  11.6260000  27.9900000  -1.8820000  11.9720000  26.0900000  -2.8020000
  13.0520000  26.2340000  -2.8290000  11.8020000  24.7240000  -2.4040000
  11.4290000  24.0280000  -3.5870000  12.3210000  23.7820000  -4.1620000
  10.8900000  22.7130000  -3.2000000   9.6160000  22.3150000  -2.9100000
   8.7900000  23.0100000  -2.9280000   9.5410000  21.0090000  -2.6130000
  10.8180000  20.5880000  -2.7180000  11.3760000  19.2920000  -2.5110000
  10.8130000  18.2520000  -2.1790000  12.7290000  19.2990000  -2.7200000
  13.1930000  18.4250000  -2.5770000  13.4980000  20.3650000  -3.0820000
  14.8340000  20.1690000  -3.2370000  15.3420000  19.3060000  -3.1020000
  15.3810000  20.9770000  -3.4970000  12.9820000  21.5730000  -3.2670000
  11.6560000  21.6010000  -3.0610000  11.3270000  26.1780000  -4.1880000
  10.7250000  27.0840000  -4.2610000  10.4140000  24.9620000  -4.1860000
   9.3740000  25.2880000  -4.1560000  10.5850000  24.3770000  -5.0900000
  12.3110000  26.0960000  -5.2140000  12.7630000  27.4210000  -5.9800000
  12.7960000  28.5720000  -5.0490000  11.8860000  27.5420000  -7.1640000
  14.2720000  27.0860000  -6.3660000  15.2750000  27.1080000  -5.3180000
  14.7840000  27.0140000  -4.3500000  15.8310000  28.0440000  -5.3660000
  16.2220000  25.9460000  -5.5100000  16.9040000  25.9080000  -4.6610000
  15.4430000  24.7540000  -5.3970000  15.8560000  23.8360000  -6.4140000
  16.6280000  23.1350000  -6.0960000  14.6720000  22.9750000  -6.6370000
  13.4700000  23.5580000  -6.8690000  13.3530000  24.6270000  -6.9720000
  12.3480000  22.7440000  -6.9780000  11.3770000  23.2120000  -7.1380000
  12.5150000  21.3730000  -6.8360000  11.4100000  20.5740000  -6.8720000
  11.5470000  19.5790000  -6.7670000  10.4930000  20.9780000  -7.0000000
  13.7230000  20.8420000  -6.6270000  14.8020000  21.6280000  -6.5290000
  15.9240000  21.1780000  -6.3140000  16.9420000  25.8270000  -6.8480000
  16.8740000  26.7730000  -7.3850000  16.1180000  24.7670000  -7.5780000
  15.6410000  25.2140000  -8.4500000  16.7710000  23.9550000  -7.8980000
  18.3400000  25.5110000  -6.7010000  19.3310000  25.7740000  -7.9250000
  20.7040000  25.9760000  -7.4080000  18.7630000  26.8510000  -8.7580000
  19.3020000  24.4120000  -8.7630000  20.1090000  23.2840000  -8.3590000
  19.9100000  22.9690000  -7.3350000  21.1640000  23.5440000  -8.4400000
  19.7480000  22.1670000  -9.2990000  20.1970000  21.2340000  -8.9580000
  18.3500000  21.9690000  -9.1390000  17.9650000  21.2000000 -10.2690000
  18.2090000  20.1460000 -10.1350000  16.4930000  21.2200000 -10.2650000
  15.6630000  22.2890000 -10.4780000  16.0540000  23.2740000 -10.6890000
  14.3680000  21.9580000 -10.3900000  14.3880000  20.6400000 -10.1020000
  13.3010000  19.7420000  -9.8560000  12.0910000  19.9670000  -9.8570000
  13.7500000  18.4660000  -9.6250000  13.0390000  17.7800000  -9.4690000
  15.0420000  18.0430000  -9.6050000  15.2590000  16.7170000  -9.4060000
  14.5610000  16.0020000  -9.2580000  16.2230000  16.4160000  -9.3840000
  16.0610000  18.8850000  -9.7920000  15.6600000  20.1560000 -10.0270000
  19.9210000  22.4040000 -10.8150000  20.1370000  23.4570000 -10.9940000
  18.5350000  22.0620000 -11.3810000  18.2290000  22.8350000 -12.0860000
  18.5780000  21.1000000 -11.8930000  20.9850000  21.6350000 -11.4010000
  21.1090000  21.7680000 -12.3440000   6.5050000  11.8870000  -9.1820000
   7.4580000  11.8840000  -9.0700000   8.2520000  10.9680000  -9.8540000
   8.0950000  11.2330000 -10.9000000   7.9680000   9.9280000  -9.6960000
   9.7140000  11.1410000  -9.5120000  10.2710000  10.4650000 -10.1610000
  10.1440000  12.4550000  -9.9080000  10.8960000  13.0440000  -8.8370000
  11.9800000  13.0120000  -8.9490000  10.5750000  14.4870000  -8.9440000
   9.2650000  14.8240000  -9.0800000   8.4720000  14.0920000  -9.0430000
   8.9390000  16.1620000  -9.2740000   7.8920000  16.4340000  -9.4090000
   9.9800000  17.0880000  -9.3340000   9.6980000  18.3950000  -9.5890000
  10.4710000  19.0430000  -9.6270000   8.7430000  18.6910000  -9.7330000
  11.2460000  16.7140000  -9.1930000  11.5590000  15.4300000  -9.0060000
  12.7250000  15.0660000  -8.9320000  10.1030000  10.9890000  -8.0550000
   9.2880000  10.5210000  -7.5030000  10.2540000  12.4370000  -7.6070000
   9.5100000  12.6610000  -6.8420000  11.2530000  12.5890000  -7.1970000
  11.2930000  10.2210000  -7.9040000  11.6020000   9.5100000  -6.5020000
  11.6660000   8.0320000  -6.6640000  10.6440000  10.0100000  -5.4940000
  13.0510000  10.0940000  -6.1770000  14.1000000  10.0210000  -7.1560000
  13.7810000  10.3170000  -8.1550000  14.4880000   9.0030000  -7.1980000
  15.1130000  10.9920000  -6.6570000  16.0020000  11.0260000  -7.2870000
  14.5560000  12.3000000  -6.7550000  15.0580000  13.0860000  -5.6710000
  15.9710000  13.6390000  -5.8930000  14.0360000  14.1400000  -5.5360000
  12.7100000  13.9570000  -5.2590000  12.3090000  12.9740000  -5.0610000
  12.0160000  15.1030000  -5.2690000  12.9370000  16.0410000  -5.5580000
  12.7610000  17.4510000  -5.7100000  11.7230000  18.1110000  -5.6300000
  13.9520000  18.0790000  -5.9730000  13.9160000  19.0760000  -6.0410000
  15.1710000  17.4850000  -6.1070000  16.2440000  18.2920000  -6.3250000
  16.2400000  19.2980000  -6.4120000  17.1380000  17.8350000  -6.4310000
  15.3290000  16.1610000  -5.9860000  14.1790000  15.4990000  -5.7210000
  15.4450000  10.8060000  -5.1890000  14.8830000   9.9560000  -4.8030000
  14.9370000  12.1000000  -4.5290000  14.2710000  11.8500000  -3.7030000
  15.7840000  12.6730000  -4.1510000  16.8360000  10.5600000  -5.0130000
  17.4780000  10.3800000  -3.5690000  18.6650000   9.5160000  -3.7290000
  16.4270000   9.9400000  -2.6330000  17.9570000  11.8650000  -3.2080000
  18.9630000  12.5310000  -3.9960000  18.8090000  12.4990000  -5.0750000
  19.9330000  12.0680000  -3.8140000  18.9360000  13.9580000  -3.5360000
  19.4920000  14.6300000  -4.1890000  17.5920000  14.4090000  -3.6220000
  17.5450000  15.6020000  -2.8720000  17.6910000  16.5090000  -3.4590000
  16.1450000  15.6960000  -2.4280000  15.5090000  14.5840000  -1.9790000
  16.0020000  13.6300000  -1.8670000  14.1640000  14.6890000  -1.6520000
  13.6460000  13.8030000  -1.2850000  13.5360000  15.9190000  -1.8250000
  12.2050000  16.0170000  -1.5530000  11.7640000  16.9160000  -1.6840000
  11.6900000  15.2090000  -1.2330000  14.2090000  16.9830000  -2.2640000
  15.5070000  16.8860000  -2.5580000  16.1620000  17.8460000  -2.9570000
  19.2530000  14.1390000  -2.0660000  18.8270000  13.3140000  -1.4950000
  18.5200000  15.4170000  -1.7280000  18.5460000  15.5770000  -0.6500000
  19.0010000  16.2560000  -2.2310000  20.6590000  14.2190000  -1.8580000
  21.3040000  14.5290000  -0.4360000  22.6960000  14.0870000  -0.5240000
  20.4880000  13.9540000   0.6500000  21.3060000  16.1170000  -0.3630000
  22.1770000  16.8760000  -1.2120000  22.0760000  16.6080000  -2.2640000
  23.2110000  16.7240000  -0.9020000  21.7390000  18.2920000  -1.0210000
  22.0000000  18.9060000  -1.8830000  20.3050000  18.2250000  -1.0480000
  19.7650000  18.9850000   0.0460000  19.4180000  19.9490000  -0.3270000
  18.5130000  18.2990000   0.4680000  18.3630000  17.0620000   1.0390000
  19.2220000  16.4420000   1.2520000  17.0800000  16.7440000   1.2810000
  16.4000000  17.8320000   0.8680000  14.9960000  18.0900000   0.8820000
  14.0820000  17.3780000   1.2800000  14.7120000  19.3490000   0.4180000
  13.7500000  19.6200000   0.4490000  15.6060000  20.2680000  -0.0270000
  15.1340000  21.4930000  -0.3820000  14.1730000  21.8030000  -0.3640000
  15.8150000  22.1590000  -0.7190000  16.9120000  20.0170000  -0.0720000
  17.2360000  18.7940000   0.3840000  22.1010000  18.9590000   0.2930000
  22.9020000  18.3970000   0.7730000  20.8200000  18.8290000   1.1210000
  21.0260000  18.2520000   2.0230000  20.4640000  19.8210000   1.3980000
  22.5920000  20.2930000   0.0970000  22.9040000  21.2380000   1.3390000
  23.9940000  22.1830000   1.0250000  23.1040000  20.3900000   2.5380000
  21.5770000  22.1070000   1.3900000  21.2160000  22.8330000   0.2000000
  20.8810000  22.0990000  -0.5330000  22.0780000  23.3940000  -0.1590000
  20.1010000  23.7880000   0.4840000  19.8500000  24.3100000  -0.4390000
  18.9130000  23.0540000   0.8160000  18.4970000  23.3930000   2.1450000
  17.6070000  24.0130000   2.2540000  18.0790000  22.0950000   2.7580000
  18.8470000  21.0200000   3.1330000  19.9250000  21.0680000   3.1010000
  18.1140000  19.9840000   3.5840000  16.8420000  20.4240000   3.4880000
  15.5770000  19.8170000   3.7860000  15.4480000  18.5370000   4.2420000
  14.5310000  18.1600000   4.4360000  16.2690000  17.9670000   4.3850000
  14.4820000  20.5570000   3.5930000  14.5970000  21.8010000   3.1180000
  13.7160000  22.4050000   2.9580000  15.7000000  22.4720000   2.7830000
  16.7910000  21.7060000   3.0020000  20.3470000  24.7430000   1.6330000
  21.4160000  24.8770000   1.7960000  19.7520000  23.9450000   2.7910000
  20.5470000  23.6520000   3.4770000  19.0240000  24.5600000   3.3200000
  19.7320000  26.0100000   1.4110000  19.8030000  27.1410000   2.5260000
  19.7960000  28.4780000   1.8880000  20.9530000  26.8580000   3.4260000
  18.3960000  26.9390000   3.2410000  17.2030000  27.0280000   2.4520000
  17.1980000  26.1500000   1.8070000  17.1970000  27.9720000   1.9070000
  16.0350000  26.9580000   3.3880000  15.1490000  27.1600000   2.7860000
  15.8560000  25.6120000   3.8500000  15.5610000  25.6550000   5.2430000
  14.5210000  25.6290000   5.5690000  16.1040000  24.3730000   5.7550000
  17.4110000  23.9670000   5.8300000  18.2200000  24.6430000   5.5960000
  17.5390000  22.7060000   6.2760000  16.2660000  22.3090000   6.4800000
  15.7150000  21.0730000   6.9330000  16.4830000  19.9940000   7.2430000
  16.0480000  19.1390000   7.5600000  17.4880000  20.0480000   7.1560000
  14.3890000  20.9940000   7.0360000  13.6360000  22.0410000   6.7080000
  12.5600000  21.9880000   6.7870000  14.0190000  23.2340000   6.2650000
  15.3670000  23.2910000   6.1740000  16.1010000  27.8610000   4.6150000
  16.9490000  28.5420000   4.5340000  16.3680000  26.8440000   5.7240000
  17.3180000  27.0730000   6.2060000  15.5660000  26.8910000   6.4610000
  14.8900000  28.6080000   4.7570000  14.6040000  29.5450000   6.0200000
  13.7920000  30.6960000   5.5820000  15.8520000  29.8360000   6.7490000
  13.6330000  28.6280000   6.8850000  12.3980000  28.1710000   6.3030000
  12.5710000  27.6450000   5.3640000  11.7400000  29.0230000   6.1310000
  11.8090000  27.2170000   7.3020000  10.9470000  26.7000000   6.8810000
  12.7670000  26.1840000   7.5340000  12.4260000  25.6450000   8.7990000
  11.6210000  24.9110000   8.8120000  13.6090000  24.8500000   9.2050000
  14.8440000  25.4050000   9.0480000  14.9790000  26.4230000   8.7130000
  15.9720000  24.6470000   9.3620000  17.3450000  25.2390000   9.2340000
  17.4280000  26.1090000   9.8850000  18.0900000  24.4970000   9.5230000
  17.5160000  25.5420000   8.2010000  15.8150000  23.3210000   9.7770000
  16.7550000  22.5700000  10.0290000  14.5510000  22.8250000   9.9130000
  14.3850000  21.7900000  10.2120000  13.4420000  23.5750000   9.6560000
  12.3110000  23.1010000   9.8020000  11.5150000  27.8220000   8.6690000
  11.9390000  28.8250000   8.7160000  12.2670000  26.9060000   9.6300000
  12.8240000  27.5090000  10.3470000  11.5560000  26.2750000  10.1620000
  10.1030000  27.9520000   8.8910000   9.5130000  28.5330000  10.2600000
   8.1450000  29.0070000   9.9980000  10.4550000  29.5130000  10.8410000
   9.3950000  27.2230000  11.1530000   8.5760000  26.1480000  10.6640000
   8.9570000  25.7790000   9.7120000   7.5500000  26.4970000  10.5470000
   8.6550000  25.0600000  11.6780000   8.1010000  24.1870000  11.3320000
  10.0030000  24.6150000  11.7640000  10.1900000  24.1480000  13.0890000
   9.8700000  23.1350000  13.3350000  11.6600000  24.0700000  13.2050000
  12.3850000  25.1870000  12.9260000  11.9080000  26.1360000  12.7290000
  13.7740000  25.1260000  12.9330000  14.5630000  26.3580000  12.6120000
  14.3230000  27.1410000  13.3310000  15.6280000  26.1320000  12.6630000
  14.3130000  26.6990000  11.6070000  14.4020000  23.9140000  13.2250000
  15.6250000  23.7640000  13.2520000  13.6200000  22.8290000  13.4970000
  14.0730000  21.8600000  13.7060000  12.2570000  22.8800000  13.4860000
  11.5830000  21.8660000  13.6910000   8.2720000  25.4710000  13.0870000
   7.9760000  26.5200000  13.0920000   9.5860000  25.3070000  13.8600000
   9.8520000  26.2540000  14.3300000   9.4640000  24.5430000  14.6270000
   7.1990000  24.6570000  13.5530000   6.5940000  24.8230000  15.0160000
   5.1690000  24.4240000  14.9870000   6.8700000  26.1890000  15.5110000
   7.4090000  23.7310000  15.8390000   7.3310000  22.3520000  15.4330000
   7.7760000  22.1780000  14.4530000   6.2870000  22.0390000  15.4050000
   8.1000000  21.5980000  16.4610000   8.0400000  20.5160000  16.3440000
   9.4780000  21.9020000  16.2630000  10.1070000  21.7430000  17.5230000
  10.4920000  20.7560000  17.7780000  11.3280000  22.5560000  17.3310000
  11.1930000  23.8780000  17.0350000  10.2350000  24.3770000  17.0240000
  12.3380000  24.6090000  16.7360000  12.2400000  25.6660000  16.4900000
  13.5600000  23.9380000  16.7390000  14.6850000  24.6280000  16.4040000
  15.5620000  24.1280000  16.4110000  14.6280000  25.6060000  16.1590000
  13.6390000  22.6390000  17.0350000  12.5340000  21.9390000  17.3290000
  12.5600000  20.7310000  17.5790000   7.7660000  22.0450000  17.8790000
   7.1360000  22.9330000  17.8340000   9.1230000  22.4140000  18.4690000
   9.0320000  23.3370000  19.0410000   9.4650000  21.6130000  19.1250000
   7.0360000  21.0410000  18.6110000   6.5090000  21.3240000  20.0990000
   5.3870000  20.3970000  20.3960000   6.2350000  22.7740000  20.3060000
   7.7670000  20.9240000  20.9930000   8.2160000  19.5590000  21.0730000
   8.5050000  19.1880000  20.0890000   7.4200000  18.9380000  21.4840000
   9.4220000  19.5570000  21.9770000   9.7860000  18.5340000  22.0750000
  10.4930000  20.2600000  21.3190000  10.9880000  21.2260000  22.2560000
  11.8270000  20.7690000  22.7810000  11.5990000  22.3570000  21.5430000
  11.0370000  23.5450000  21.1590000   9.9930000  23.7580000  21.3320000
  11.9210000  24.3620000  20.5660000  13.0720000  23.6530000  20.5800000
  14.3700000  24.0030000  20.1020000  14.7470000  25.0570000  19.5850000
  15.2680000  22.9830000  20.3080000  16.2070000  23.1740000  20.0220000
  15.0230000  21.7760000  20.8910000  16.0660000  20.9140000  21.0380000
  17.0220000  21.0620000  20.7490000  15.8580000  20.0230000  21.4650000
  13.8150000  21.4520000  21.3500000  12.9020000  22.4290000  21.1510000
   9.2670000  20.2670000  23.3250000   8.2150000  20.3040000  23.6090000
   9.7510000  21.6700000  22.9900000   8.9020000  22.3530000  22.9710000
  10.4640000  21.9990000  23.7460000  10.0880000  19.6570000  24.2930000
   9.4770000  18.6270000  25.3400000   8.7670000  17.5340000  24.6270000
   8.6700000  19.4090000  26.3120000  10.8070000  18.0670000  26.0340000
  11.6880000  17.1700000  25.3100000  11.5090000  17.2170000  24.2360000
  11.5170000  16.1460000  25.6420000  13.1150000  17.5730000  25.5930000
  13.8400000  16.8980000  25.1380000  13.2840000  18.8040000  24.8930000
  14.3120000  19.5080000  25.5680000  15.2870000  19.2400000  25.1600000
  14.1440000  20.9320000  25.1700000  12.9350000  21.5400000  25.3590000
  12.0890000  21.0320000  25.7990000  12.7950000  22.8660000  24.9670000
  11.8350000  23.3580000  25.1260000  13.8980000  23.5100000  24.4040000
  13.7710000  24.8130000  24.0180000  14.5790000  25.2630000  23.6130000
  12.8930000  25.2970000  24.1400000  15.0670000  22.8770000  24.2570000
  15.1990000  21.5950000  24.6300000  16.2570000  20.9840000  24.5040000
  13.4410000  17.8790000  27.0590000  12.5260000  17.8180000  27.6490000
  13.9280000  19.3220000  27.0250000  13.4630000  19.8820000  27.8360000
  15.0110000  19.3430000  27.1430000  14.3410000  16.9380000  27.6770000
  14.6580000  17.0640000  29.2470000  14.8630000  15.7170000  29.8250000
  13.6330000  17.9120000  29.9200000  16.0330000  17.8800000  29.2840000
  17.2430000  17.3200000  28.7420000  17.1780000  16.9200000  27.7300000
  17.5750000  16.4940000  29.3700000  18.2080000  18.4640000  28.7580000
  19.2000000  18.2070000  28.3860000  17.7160000  19.4280000  27.8290000
  18.2760000  20.6930000  28.1880000  18.9760000  21.0680000  27.4410000
  17.1640000  21.6590000  28.1390000  15.8740000  21.5360000  28.5800000
  15.5380000  20.6440000  29.0870000  15.1290000  22.6140000  28.3080000
  15.9900000  23.4360000  27.6730000  15.7650000  24.7290000  27.1170000
  14.7190000  25.3730000  27.0670000  16.9260000  25.2570000  26.6040000
  16.8540000  26.1860000  26.2420000  18.1570000  24.6660000  26.5790000
  19.2080000  25.3860000  26.0960000  19.1840000  26.3280000  25.7330000
  20.1050000  24.9210000  26.0810000  18.3500000  23.4380000  27.0530000
  17.2310000  22.8930000  27.5700000  18.2300000  19.2360000  30.0580000
  17.2180000  19.4510000  30.4000000  18.8850000  20.5190000  29.5780000
  19.1800000  21.1210000  30.4380000  19.7670000  20.2770000  28.9850000
  18.9780000  18.5830000  31.0840000  19.0100000  19.0500000  31.9220000
