default_name
   892
  32.2310000  15.2810000 -13.1430000  32.9851834  14.8372693 -13.6473922
  32.4587950  16.2559601 -13.0100990  31.3552521  15.0212006 -13.5738939
  32.1840000  14.6970000 -11.7720000  32.3032262  15.4585202 -11.0013047
  30.7970000  14.0650000 -11.6250000  30.3865880  14.2536900 -10.6330034
  30.1119290  14.4500423 -12.3803279  30.9760000  12.5890000 -11.8190000
  31.3776576  12.3579863 -12.8056127  31.6217112  12.1573880 -11.0542319
  29.6080000  12.0160000 -11.6940000  29.6236497  10.9328503 -11.5730007
  29.0458978  12.4644943 -10.8748581  28.9420000  12.3350000 -12.9450000
  29.5006969  12.2885206 -13.7851171  27.6700000  12.6960000 -13.0500000
  26.9010000  12.7770000 -11.9990000  27.2749303  12.5622040 -11.0856880
  25.9354192  13.0541134 -12.1036973  27.1610000  12.9630000 -14.2550000
  27.7461637  12.8884029 -15.0748285  26.1930997  13.2383669 -14.3412604
  33.4380000  13.8900000 -11.3870000  34.1020000  13.0700000 -12.0660000
  33.7380000  14.1730000 -10.1260000  32.9670000  15.1430000  -9.2430000
  32.0743365  14.6394603  -8.8719207  32.6744715  16.0029271  -9.8455375
  33.9270000  15.5150000  -8.1350000  33.4003427  15.6831982  -7.1956170
  34.5018717  16.4044311  -8.3929461  34.8260000  14.2920000  -8.0560000
  34.2690442  13.6759797  -7.3500126  35.8316418  14.4643006  -7.6724682
  34.8970000  13.6030000  -9.3900000  35.8395090  13.8080222  -9.8976819
  34.6520000  12.1350000  -9.3740000  33.5830000  11.5370000  -9.2550000
  35.7900000  11.4660000  -9.4660000  36.5670630  11.9813812  -9.8541425
  35.8370000  10.0140000  -9.5070000  34.9884807   9.6000547 -10.0517600
  37.1240000   9.6340000 -10.2440000  37.9484702  10.2160506  -9.8322169
  37.3308741   8.5714178 -10.1166334  36.9680000   9.9570000 -11.7730000
  37.0830000  11.1410000 -12.1740000  36.7120000   9.1580000 -12.7350000
  35.2960000   9.4020000  -8.2360000  34.8120000   8.2880000  -8.2600000
  35.4660000  10.2100000  -7.1740000  36.0323204  11.0462129  -7.1853388
  34.9750000   9.7040000  -5.8550000  35.2933148   8.6633549  -5.7930917
  35.4350000  10.4230000  -4.6130000  35.0942722   9.9117591  -3.7126464
  36.5242316  10.4637364  -4.6168986  34.9600000  11.8190000  -4.5120000
  33.7080000  12.0360000  -3.9460000  33.0947092  11.2037236  -3.6006157
  33.2490000  13.3210000  -3.8260000  32.2575020  13.4636128  -3.3962396
  33.9980000  14.4230000  -4.2290000  33.6285586  15.4448480  -4.1427471
  35.2760000  14.1800000  -4.7640000  35.9144076  15.0153285  -5.0516842
  35.7170000  12.8970000  -4.9230000  36.6866057  12.7070840  -5.3833223
  33.4380000   9.5140000  -5.8430000  32.9370000   8.7330000  -5.0200000
  32.7570000  10.2360000  -6.7320000  33.1732998  10.9058360  -7.3629624
  31.2860000  10.0290000  -6.7940000  30.7969371  10.2062248  -5.8361336
  30.7940000  11.0650000  -7.7890000  31.2812249  10.9057567  -8.7509525
  29.7147386  10.9705576  -7.9088979  31.0750000  12.7970000  -7.3250000
  30.8640000   8.6520000  -7.2540000  29.6900000   8.2790000  -7.1160000
  31.7400000   7.9090000  -7.8430000  32.6787710   8.2712458  -7.9300995
  31.4670000   6.5830000  -8.3510000  30.4211580   6.5192893  -8.6514241
  32.3450000   6.2580000  -9.5630000  33.3597040   6.2250395  -9.1662777
  32.0432892   5.2569933  -9.8713121  32.2990000   7.2120000 -10.7870000
  32.6587931   8.1932768 -10.4775722  33.1600000   6.6930000 -11.9170000
  32.8005077   5.7118897 -12.2273010  33.1078486   7.3818535 -12.7601262
  34.1930265   6.6106946 -11.5790910  30.8810000   7.3410000 -11.2800000
  30.2545926   7.7449089 -10.4846568  30.8540062   8.0114638 -12.1389824
  30.5071715   6.3600775 -11.5734999  31.7990000   5.5890000  -7.2460000
  31.4350000   4.4250000  -7.5430000  32.3970000   5.9710000  -6.1280000
  32.7783862   6.8937628  -5.9758399  32.6630000   4.9240000  -5.1120000
  32.8692794   3.9844946  -5.6247158  33.8650000   5.2650000  -4.2040000
  33.7090117   4.6467804  -3.3199347  34.7262713   4.8934282  -4.7591993
  34.1170000   6.6940000  -3.7810000  34.5521701   7.1300706  -4.6802053
  33.0901758   7.0422067  -3.6692713  34.9350000   7.1200000  -2.5610000
  36.1040000   6.7530000  -2.5020000  34.2670000   7.8230000  -1.8150000
  31.4350000   4.5760000  -4.3010000  30.5650000   5.4270000  -4.1200000
  31.3510000   3.3330000  -3.9110000  32.3130000   2.2180000  -4.0850000
  33.3015191   2.5505710  -3.7682561  32.3444097   1.9384850  -5.1380830
  31.7570000   1.0970000  -3.1990000  32.2972166   1.1114906  -2.2523981
  31.9321853   0.1461043  -3.7021986  30.2830000   1.3340000  -2.9950000
  29.9907058   1.0110986  -1.9958014  29.6114111   0.8910026  -3.7304055
  30.2240000   2.8520000  -3.0860000  29.2743682   3.1257059  -3.5457639
  30.3340000   3.5160000  -1.7070000  31.3910000   3.9970000  -1.2930000
  29.2000000   3.6310000  -1.0170000  27.8420000   3.0870000  -1.4030000
  27.9312157   2.0608112  -1.7594791  27.3931317   3.7038094  -2.1815643
  27.0750000   3.1860000  -0.0510000  27.2343916   2.2931584   0.5535885
  26.0069545   3.3246265  -0.2188181  27.6870000   4.4180000   0.6040000
  27.5123394   4.4067002   1.6798555  27.3419430   5.3655900   0.1903474
  29.1600000   4.2380000   0.3210000  29.5756214   5.2449952   0.2846987
  29.9930000   3.3770000   1.2740000  30.0740000   2.1520000   1.1560000
  30.6510000   4.0220000   2.2000000  30.5835279   5.0276363   2.2651347
  31.5120000   3.3200000   3.1560000  31.5310965   2.2431608   2.9882147
  32.9370000   3.8880000   2.9010000  33.1991614   3.6871797   1.8622306
  32.9068202   4.9650358   3.0658730  33.9700000   3.2700000   3.8080000
  34.2540000   1.9320000   3.6220000  33.7179375   1.3644375   2.8613363
  35.2260000   1.3050000   4.4060000  35.4787538   0.2534450   4.2701713
  35.8960000   2.0710000   5.3830000  36.8610000   1.4380000   6.1950000
  36.9695996   0.5061513   5.9913733  35.6210000   3.4220000   5.5730000
  36.1628499   4.0241863   6.3022948  34.6190000   4.0020000   4.7970000
  34.3351983   5.0414682   4.9615068  31.0440000   3.5770000   4.6170000
  31.1460000   4.6870000   5.1170000  30.5200000   2.5760000   5.2350000
  30.4256042   1.6754552   4.7875540  30.0450000   2.7200000   6.6410000
  29.4103708   3.6027041   6.7196040  29.2280000   1.4960000   7.0370000
  29.8226751   0.6183586   6.7836083  28.8520000   1.4460000   8.5170000
  28.2568780   2.3231478   8.7710497  28.2721968   0.5444557   8.7148513
  29.7582956   1.4346765   9.1224755  28.0690000   1.6560000   6.2320000
  27.4632261   0.9293674   6.3952280  31.2230000   2.8380000   7.5840000
  31.1920000   3.6410000   8.4970000  32.2510000   2.0910000   7.3500000
  32.1788714   1.4386562   6.5823124  33.5230000   2.1280000   8.1300000
  34.3615840   1.8208083   7.5050926  33.7050207   3.1319003   8.5136039
  33.3990000   1.1590000   9.3090000  32.4370000   0.4610000   9.5110000
  34.5020000   1.0820000  10.0720000  35.7650000   1.8790000   9.9280000
  35.5767306   2.9351372  10.1209486  36.1810964   1.7615265   8.9274188
  36.6310000   1.2390000  10.9920000  36.6812933   1.9139786  11.8463849
  37.6310963   1.0970171  10.5824275  36.0120000  -0.0820000  11.3700000
  36.2260736  -0.4924988  12.3567939  36.3466336  -0.7827756  10.6051251
  34.5190000   0.1680000  11.2270000  34.0142299  -0.7152202  10.8355570
  33.9160000   0.5390000  12.5960000  33.9300000  -0.2370000  13.5440000
  33.4340000   1.7270000  12.7500000  33.6786780   2.3321150  11.9792420
  32.8170000   2.3370000  13.9560000  33.1672985   1.8105141  14.8438078
  33.1760000   3.7920000  14.0870000  32.9414098   4.3098068  13.1569770
  32.6054866   4.2354850  14.9030487  34.8770000   4.0440000  14.5600000
  31.3260000   1.9310000  13.9830000  30.7700000   1.5550000  12.9560000
  30.7970000   1.9380000  15.2120000  31.3421828   2.2348502  16.0087151
  29.4550000   1.3710000  15.4540000  29.0493678   0.8608088  14.5803486
  29.6690000   0.3540000  16.5510000  29.6097349   0.9256365  17.4771850
  28.8115440  -0.3154421  16.4823233  30.9720000  -0.4760000  16.5410000
  31.8098051   0.2024622  16.3801505  31.0781560  -0.9597763  17.5119755
  30.9590000  -1.5030000  15.4780000  30.2501056  -2.2607360  15.8117722
  30.5657283  -1.0030716  14.5928399  32.2960000  -2.1700000  15.1360000
  32.9795361  -1.5174293  14.5928329  32.8062187  -2.5882409  16.0036696
  31.8360000  -3.3090000  14.2150000  31.3635732  -2.9216416  13.4107201
  32.6388879  -3.8405619  13.9101836  31.2029446  -3.9140443  14.7182507
  28.3600000   2.3340000  15.7350000  27.3290000   1.9560000  16.2990000
  28.5380000   3.5550000  15.3390000  29.4229222   3.7947794  14.9153045
  27.5190000   4.5980000  15.4540000  27.0068038   4.5126246  16.4123660
  27.9880000   6.0450000  15.2770000  28.4948668   6.1484227  14.3175784
  27.1269626   6.7127254  15.3062846  28.6764708   6.3052628  16.0809717
  26.4980000   4.2870000  14.3100000  26.8360000   3.4760000  13.4020000
  25.3650000   4.9240000  14.3240000  25.1536493   5.4801712  15.1401519
  24.3730000   4.8650000  13.2480000  24.8508755   4.3799005  12.3968757
  23.1210000   4.1380000  13.5660000  22.6560900   4.5281984  14.4713746
  22.4110116   4.1932791  12.7407965  23.5290000   2.6820000  13.7900000
  23.9256745   2.2091624  12.8915710  24.2396970   2.5611558  14.6075626
  22.2430000   2.0450000  14.1560000  22.3699388   1.1858634  14.8146879
  21.5378473   2.7448765  14.6043660  21.7020000   1.5860000  12.8940000
  22.3676344   0.8268192  12.9199763  20.8640000   1.6650000  11.8540000
  19.9240000   2.6280000  11.7210000  19.8291165   3.3385005  12.4325380
  19.3210567   2.6323988  10.9107286  20.9700000   0.7170000  10.8680000
  21.6665077  -0.0104711  10.9439130  20.3510592   0.7507769  10.0705853
  24.0310000   6.3070000  12.8960000  23.1000000   6.9140000  13.4310000
  24.7830000   6.9550000  12.0170000  25.5308414   6.3689211  11.6744448
  24.7090000   8.3410000  11.5370000  23.9461163   8.9022713  12.0765204
  26.0420000   9.0820000  11.6230000  26.7519833   8.5411439  10.9973014
  25.9740000  10.5250000  11.1760000  25.2645104  11.0666454  11.8015761
  26.9598426  10.9809752  11.2671140  25.6485605  10.5689962  10.1366480
  26.6520000   9.0200000  13.0510000  26.1419590   9.7693951  13.6562817
  26.4445270   8.0276671  13.4514122  28.1480000   9.2760000  13.0840000
  28.3562248  10.2683991  12.6841421  28.5046398   9.2169985  14.1123123
  28.6587928   8.5266719  12.4792703  24.2040000   8.2780000  10.0790000
  24.8760000   7.6790000   9.2490000  23.0500000   8.8660000   9.8540000
  22.5322398   9.3344196  10.5837991  22.4720000   8.8520000   8.4670000
  22.7054300   7.8988082   7.9926214  20.9540000   9.0490000   8.4960000
  20.7362931   9.9925567   8.9964048  20.3830000   9.0740000   7.1180000
  20.5999180   8.1305279   6.6170931  19.3036469   9.2153224   7.1739079
  20.8276422   9.8944405   6.5547329  20.4780000   7.8430000   9.3080000
  20.6509895   8.1677265  10.3340254  19.4068321   7.8323233   9.1065434
  21.0470000   6.4350000   9.1160000  22.1181219   6.4447878   9.3177474
  20.5546664   5.7467848   9.8030711  20.8739662   6.1093855   8.0902640
  23.0930000   9.9700000   7.6810000  23.0780000  11.1560000   8.0550000
  23.7260000   9.5160000   6.5640000  23.6827414   8.5421425   6.2997472
  24.4420000  10.4550000   5.6700000  24.2700754  11.4795488   5.9999103
  25.9620000  10.1780000   5.6910000  26.1127805   9.1075078   5.5516770
  26.4160683  10.7193984   4.8610544  26.6240000  10.6250000   7.0250000
  26.0402307  10.2150415   7.8491652  27.6341446  10.2167756   7.0576021
  26.6830000  12.0840000   7.1470000  27.2777791  12.4903021   6.3289197
  25.6729681  12.4908767   7.0981496  27.3010000  12.4960000   8.4360000
  26.6082891  12.8084605   9.1012965  28.5690000  12.5150000   8.7930000
  29.5280000  12.1200000   7.9540000  29.2839608  11.7997815   7.0277144
  30.4937100  12.1429692   8.2489175  28.8800000  12.9300000  10.0360000
  28.1460231  13.2167599  10.6677806  29.8457839  12.9525674  10.3307047
  23.9270000  10.1840000   4.2060000  23.3000000   9.1910000   3.9650000
  24.2900000  11.1110000   3.3410000  24.8202152  11.9208137   3.6293972
  23.9800000  10.9500000   1.8980000  23.1557289  10.2499933   1.7613728
  23.5710000  12.3080000   1.3160000  24.1654877  13.0950783   1.7798873
  23.7537935  12.3007948   0.2414607  22.0960000  12.5670000   1.5770000
  21.6570000  13.3590000   2.6560000  22.3713805  13.7899409   3.3574627
  20.3120000  13.5860000   2.8190000  19.9961890  14.2601312   3.6151862
  19.3700000  13.0260000   1.9710000  17.9950000  13.1680000   2.0920000
  17.7383471  13.7085847   2.8426645  19.7950000  12.1890000   0.9090000
  19.0831477  11.6922908   0.2497226  21.1700000  12.0080000   0.7180000
  21.5300584  11.4153198  -0.1229449  25.2300000  10.5030000   1.1710000
  26.3370000  10.9110000   1.5040000  24.9530000   9.7310000   0.1250000
  24.0164257   9.3898893  -0.0380076  25.9970000   9.3440000  -0.8040000
  26.8143564  10.0498507  -0.6563437  26.5430000   7.9440000  -0.6890000
  27.4167613   7.9145068  -1.3399767  26.8454481   7.7224406   0.3344923
  25.6700000   6.8530000  -1.1120000  25.9450000   6.1670000  -2.2850000
  26.8019914   6.4595194  -2.8917108  25.1470000   5.1270000  -2.6830000
  25.4107924   4.5711984  -3.5827771  24.0240000   4.7800000  -1.9630000
  23.3950092   3.9633564  -2.3173496  23.6910000   5.4570000  -0.8000000
  22.8239479   5.1898324  -0.1958955  24.5110000   6.5130000  -0.4120000
  24.2562677   7.1067314   0.4658920  25.3790000   9.5110000  -2.2240000
  24.1470000   9.3720000  -2.3660000  26.2480000   9.7210000  -3.2240000
  27.2369171   9.8266968  -3.0480154  25.7790000   9.7250000  -4.6340000
  24.7982957  10.1956644  -4.7032339  26.7590000  10.5110000  -5.4990000
  26.8605776  11.4954539  -5.0422377  27.7288012  10.0135058  -5.5082338
  26.2480000  10.6660000  -6.9440000  26.9140000  10.0440000  -7.9870000
  27.8032859   9.4479683  -7.7820211  26.4510000  10.1780000  -9.2950000
  26.9247725   9.6650433 -10.1319689  25.2940000  10.9250000  -9.5010000
  24.8390000  11.0850000 -10.7930000  25.3922289  10.6451720 -11.4426836
  24.5870000  11.6030000  -8.5180000  23.6874218  12.1975363  -8.6773303
  25.1250000  11.4750000  -7.2260000  24.6737905  12.0125839  -6.3920254
  25.7860000   8.3220000  -5.1240000  26.8180000   7.6210000  -5.1320000
  24.6180000   7.8310000  -5.5500000  23.8067387   8.4318497  -5.5194375
  24.4730000   6.5110000  -6.1260000  25.2282804   5.8320079  -5.7302470
  23.0990000   5.9730000  -5.7640000  23.0719039   5.9058724  -4.6764068
  22.2903179   6.6178425  -6.1079642  22.8950000   4.6110000  -6.3300000
  23.5370000   4.2040000  -7.3130000  21.9660000   3.9030000  -5.8000000
  21.7854803   2.9714640  -6.1460538  21.4194251   4.2804094  -5.0391329
  24.5330000   6.7300000  -7.6570000  23.6050000   7.1470000  -8.3380000
  25.6900000   6.4990000  -8.2440000  26.4869202   6.3251881  -7.6483433
  25.9370000   6.7710000  -9.7100000  25.5161267   7.7648359  -9.8624963
  27.4380000   6.8460000  -9.9030000  27.8728144   5.8564125  -9.7624543
  27.6581112   7.1992700 -10.9103984  27.8643851   7.5363459  -9.1751831
  25.1080000   5.8830000 -10.6650000  24.9720000   6.3150000 -11.8160000
  24.6720000   4.7390000 -10.2260000  25.0334746   4.4437183  -9.3303191
  23.8440000   3.8430000 -10.9440000  24.1911233   3.7763155 -11.9750954
  23.8730000   2.4690000 -10.3380000  24.8586090   2.0089682 -10.4090275
  23.5478950   2.4714897  -9.2976152  22.8970000   1.6880000 -11.1640000
  21.8829700   1.9327886 -10.8478946  23.0234899   1.9522163 -12.2139010
  23.1340000   0.2200000 -10.9870000  24.0283290  -0.1651265 -11.4768491
  23.1059203  -0.1305882  -9.9553029  21.8830000  -0.2820000 -11.7340000
  20.9959008   0.3204438 -11.5385080  22.0321486  -0.3695979 -12.8101879
  21.6990000  -1.6530000 -11.1400000  21.5603504  -1.5720221 -10.1428448
  20.8924883  -2.0951966 -11.5572543  22.5207224  -2.2115365 -11.3214066
  22.4580000   4.4140000 -11.0530000  21.7760000   4.4190000 -12.1130000
  21.9310000   5.0740000 -10.0380000  22.5091437   5.1897504  -9.2179689
  20.5760000   5.7010000 -10.0430000  19.8786695   5.1767367 -10.6964350
  20.0540000   5.6250000  -8.6120000  20.7370680   6.1534565  -7.9469798
  19.0675555   6.0857383  -8.5595822  19.9837768   4.5814118  -8.3052566
  20.6060000   7.1780000 -10.4320000  19.5950000   7.7680000 -10.8200000
  21.7520000   7.8480000 -10.3730000  22.5463547   7.2762334 -10.1236350
  21.9700000   9.2490000 -10.6180000  23.0454203   9.4256876 -10.5992429
  21.5822188   9.4764404 -11.6109733  21.2920000  10.1750000  -9.5910000
  20.9470000  11.3160000  -9.9040000  21.2010000   9.7230000  -8.3700000
  21.7336430   8.8927818  -8.1529090  20.5890000  10.4580000  -7.2710000
  20.3435539  11.4828844  -7.5493297  19.2330000   9.6820000  -6.9320000
  19.5491493   8.6657955  -6.6964637  18.8871077  10.1742262  -6.0230600
  18.1260000   9.6390000  -7.9240000  18.5766842   9.2317243  -8.8290476
  16.8970000   8.8570000  -7.5840000  16.4454688   9.2640088  -6.6792557
  16.1846212   8.9230482  -8.4063471  17.1640850   7.8133014  -7.4182915
  17.5480000  11.0150000  -8.2320000  18.3307302  11.6559322  -8.6377571
  16.7445253  10.9170505  -8.9620243  17.1547357  11.4576178  -7.3168325
  21.4370000  10.1940000  -6.0090000  22.0770000   9.1680000  -5.9140000
  21.2890000  11.1330000  -5.1210000  20.7603532  11.9600427  -5.3589753
  21.8750000  11.0330000  -3.7340000  22.8305592  10.5088612  -3.7508601
  22.1030000  12.4390000  -3.2170000  21.2372400  13.0580375  -3.4522689
  22.2460343  12.4107371  -2.1367952  23.4860000  13.1490000  -4.0870000
  20.8690000  10.2890000  -2.8500000  19.6390000  10.6510000  -2.9610000
  21.3360000   9.3240000  -2.0860000  22.3323955   9.1590535  -2.0953764
  20.5080000   8.4740000  -1.2590000  19.5194676   8.9225203  -1.1603473
  20.3540000   7.0870000  -1.8580000  21.3489606   6.6659003  -2.0023180
  19.7981444   6.4706274  -1.1514525  19.6230000   7.1190000  -3.1830000
  18.5979307   7.4679172  -3.0581381  20.1671723   7.8133778  -3.8231704
  19.5940000   5.7670000  -3.8530000  20.3950000   4.8670000  -3.6530000
  18.5310000   5.6180000  -4.6780000  18.4050313   4.7524613  -5.1830506
  17.8687202   6.3730494  -4.7847111  21.1840000   8.4020000   0.1180000
  22.3280000   8.7840000   0.2910000  20.4040000   7.9340000   1.1030000
  19.4291292   7.7183430   0.9506247  20.9410000   7.8360000   2.4900000
  21.6919063   8.6243810   2.5419066  19.8490000   8.1160000   3.5680000
  20.3079121   8.0652287   4.5553815  19.2400000   9.4730000   3.3690000
  18.7804555   9.5243797   2.3819445  18.4811927   9.6467132   4.1319773
  20.0153736  10.2349735   3.4483261  18.8070000   7.2160000   3.3480000
  18.1153684   7.3622521   3.9975047  21.5900000   6.4890000   2.6560000
  21.4010000   5.4280000   2.0760000  22.5060000   6.4560000   3.6190000
  22.7426595   7.3404966   4.0453301  23.2070000   5.2750000   4.0600000
  22.5221161   4.4302168   3.9866886  24.4340000   4.9640000   3.2700000
  24.6506480   3.8988518   3.3513774  24.1654205   5.2020181   2.2407709
  25.7100000   5.6820000   3.5550000  26.7810000   5.0950000   4.2240000
  26.6680672   4.0690528   4.5743976  27.9460000   5.7660000   4.4450000
  28.8023793   5.3292882   4.9588074  28.0080000   7.0530000   3.9840000
  28.9389903   7.5676467   4.2216883  27.0140000   7.7100000   3.2710000
  27.0958682   8.7235218   2.8783535  25.8430000   6.9750000   3.0690000
  25.0107455   7.4157320   2.5201761  23.5500000   5.5410000   5.5590000
  23.5560000   6.6400000   6.0340000  23.9230000   4.4770000   6.2050000
  23.8999100   3.5890927   5.7241810  24.3490000   4.4960000   7.6460000
  23.9332022   5.3881016   8.1143655  23.7710000   3.2420000   8.3640000
  24.1849202   2.3207110   7.9541269  24.1900000   3.3820000   9.8220000
  23.7760419   4.3028941  10.2327234  23.8165232   2.5307844  10.3912518
  25.2776490   3.4126326   9.8866760  22.2640000   3.2910000   8.2580000
  21.9728692   3.2887696   7.2076001  21.8357952   2.4205372   8.7550260
  21.8950461   4.1990822   8.7348234  25.8940000   4.5240000   7.7110000
  26.6380000   3.6250000   7.2630000  26.3870000   5.6310000   8.2310000
  25.7434198   6.3829318   8.4322521  27.8140000   5.8600000   8.4580000
  28.4235901   5.2253931   7.8147479  28.1110000   7.3550000   8.1110000
  28.0256915   7.3454112   7.0243861  27.3599502   8.0259285   8.5279882
  29.4870000   7.8350000   8.5030000  30.6140000   7.0950000   8.1740000
  30.5210553   6.1936667   7.5681460  31.8620000   7.5060000   8.6190000
  32.7495035   6.9231363   8.3726074  31.9770000   8.6410000   9.3730000
  33.1980000   9.0640000   9.8030000  33.9144588   8.4909767   9.5202798
  30.8950000   9.3870000   9.7150000  30.9978739  10.3095137  10.2863894
  29.6130000   8.9430000   9.3130000  28.7225604   9.4775009   9.6439474
  28.0850000   5.4550000   9.9380000  27.3560000   5.8800000  10.8410000
  29.1810000   4.7410000  10.1520000  29.7924680   4.5209482   9.3788354
  29.5440000   4.2520000  11.4870000  28.6202473   3.9155908  11.9577536
  30.2063712   3.3993696  11.3373832  30.2190000   5.2420000  12.3890000
  30.4140000   4.8970000  13.5540000  30.5870000   6.3730000  11.9110000
  30.4657565   6.5716001  10.9281687  31.1720000   7.3770000  12.7360000
  30.6264761   8.2813963  12.4666115  30.8953864   7.0736414  13.7457316
  32.6370000   7.6640000  12.6990000  33.0980000   8.6240000  13.3800000
  33.3870000   6.8710000  11.9990000  33.0420120   6.0582491  11.5085730
  34.8130000   7.2120000  11.8680000  34.9313715   8.2849352  12.0193193
  35.7020000   6.4660000  12.8950000  36.7486648   6.7132196  12.7175894
  35.4238340   6.7685071  13.9045609  35.7190000   4.6840000  12.8270000
  35.2670000   6.7630000  10.4810000  34.7290000   5.8080000   9.8600000
  36.3410000   7.3750000  10.0420000  36.6827158   8.1501551  10.5919675
  37.0250000   7.0560000   8.8050000  37.8734915   7.7242149   8.6578599
  37.5380000   5.6250000   8.8660000  36.7199090   4.9229509   9.0271004
  38.0682672   5.3604594   7.9511585  38.5160000   5.5620000  10.0660000
  39.3160843   6.2923196   9.9451726  37.9874581   5.7540158  10.9997427
  39.1070000   4.1660000  10.0980000  38.3323063   3.4011141  10.0441662
  39.8228585   4.0148560   9.2900386  39.8050000   4.0350000  11.3710000
  39.6660388   4.8187120  11.9927593  40.5900000   3.0320000  11.7750000
  40.8230000   1.9640000  11.0240000  40.3989389   1.8906901  10.1102725
  41.4234268   1.2288944  11.3692638  41.1440000   3.1050000  12.9870000
  40.9640347   3.9072058  13.5736672  41.7406826   2.3577061  13.3119930
  36.1870000   7.2270000   7.5200000  36.3320000   6.3910000   6.6400000
  35.4560000   8.2800000   7.5300000  35.4555518   8.8982717   8.3286484
  34.6310000   8.6320000   6.3850000  33.8696012   7.8668487   6.2336247
  33.9410000   9.9810000   6.5420000  34.6910322  10.7588292   6.6852951
  33.3592427  10.1985549   5.6462720  33.2783044   9.9522467   7.4069318
  35.4970000   8.7340000   5.1350000  36.6870000   9.1150000   5.1370000
  34.8890000   8.4280000   4.0190000  34.0163379   7.9333161   4.1366774
  35.4560000   8.5490000   2.6380000  36.4911293   8.8776721   2.7306342
  35.4260000   7.2830000   1.8430000  34.3914949   6.9403004   1.8643419
  35.6946594   7.5625359   0.8242842  36.3300000   6.1770000   2.3140000
  37.3532848   6.5501375   2.2720779  36.0662923   5.9565585   3.3483916
  36.2200000   4.9250000   1.4920000  35.1771020   4.6320653   1.3709543
  36.6736793   5.0652596   0.5108773  36.9720000   3.8300000   2.2490000
  36.6151680   3.8069345   3.2786793  36.7681499   2.8709478   1.7728034
  38.4300000   4.0860000   2.2380000  38.6191445   4.9744356   2.6795952
  38.9046292   3.3512305   2.7429168  38.7609245   4.1069868   1.2839834
  34.7820000   9.7750000   2.0260000  33.9380000  10.5010000   2.6380000
  35.1150000  10.1280000   0.7770000  35.7921521   9.5696804   0.2771565
  34.6590000  11.3720000   0.1670000  34.6504905  12.1592101   0.9208747
  35.5540000  11.7970000  -0.9600000  35.6420023  10.9345747  -1.6207401
  35.0299453  12.5996278  -1.4788982  36.9180000  12.2650000  -0.5680000
  36.7155253  13.1611670   0.0185061  37.2739781  11.4729620   0.0908304
  37.9570000  12.5650000  -1.5880000  37.5726489  13.0751125  -2.4712658
  38.8134071  13.1136752  -1.1960538  38.3930000  11.2350000  -1.9720000
  38.1442414  10.4522463  -1.3841946  39.0920000  10.9930000  -3.1140000
  39.4860000  11.9790000  -3.9420000  39.2623677  12.9389426  -3.7215487
  40.0033822  11.7541830  -4.7797784  39.4460000   9.7340000  -3.4280000
  39.1913623   8.9731647  -2.8144942  39.9648617   9.5551272  -4.2758713
  33.1780000  11.3320000  -0.2590000  32.5990000  12.4010000  -0.1620000
  32.6620000  10.2080000  -0.6180000  33.1893300   9.3468334  -0.5976381
  31.2350000  10.1570000  -1.0750000  30.9335328  11.0752100  -1.5790904
  31.1580000   9.0060000  -2.0720000  31.9390279   9.0996468  -2.8265362
  31.2652557   8.0523029  -1.5552234  29.7990000   9.0330000  -2.7700000
  29.0020000   9.9680000  -2.6530000  29.5330000   8.0070000  -3.5030000
  28.6522961   7.9562382  -3.9948168  30.2064909   7.2585085  -3.5821910
  30.3630000   9.8980000   0.1750000  29.8300000   8.8070000   0.4310000
  30.3290000  10.9260000   0.9290000  30.8433860  11.7310579   0.6012987
  29.6800000  10.9980000   2.2810000  28.7117148  10.4975615   2.2718270
  30.5790000  10.2980000   3.2870000  30.6235820   9.2573008   2.9659753
  31.5747393  10.7378734   3.2311906  30.0970000  10.3420000   4.7700000
  29.3530000  11.2230000   5.1570000  30.5930000   9.3960000   5.5250000
  30.3363596   9.3460000   6.5005693  31.2303089   8.7199645   5.1288761
  29.4410000  12.4810000   2.5130000  30.3740000  13.2530000   2.6400000
  28.1530000  12.8150000   2.5800000  27.4467105  12.0935764   2.6083273
  27.7320000  14.1880000   2.6960000  28.5826115  14.8466979   2.8711466
  27.0540000  14.5950000   1.3450000  26.2242537  13.9005898   1.2130354
  26.6751078  15.6170272   1.3461058  27.9160000  14.4620000   0.1400000
  27.9530000  13.2940000  -0.6020000  27.3147908  12.4613064  -0.3063476
  28.7830000  13.1730000  -1.7040000  28.8088648  12.2834649  -2.3334116
  29.5990000  14.2410000  -1.9900000  30.2595545  14.1268221  -2.8494947
  29.6150000  15.4240000  -1.2500000  30.2692098  16.2563209  -1.5095221
  28.7520000  15.5250000  -0.1380000  28.7571768  16.4256968   0.4758554
  26.6490000  14.3150000   3.8050000  25.8560000  13.4190000   4.0210000
  26.6540000  15.5230000   4.3260000  27.3689806  16.2104950   4.1355988
  25.6700000  15.8100000   5.3990000  25.3714239  14.8580624   5.8380516
  26.1880000  16.7200000   6.5120000  26.5493700  17.6372812   6.0471278
  25.3479835  16.9516649   7.1668310  27.3180000  16.0840000   7.3350000
  26.9357780  15.1937883   7.8345301  28.1306586  15.8033452   6.6649844
  27.8430000  17.0810000   8.3910000  27.8955359  18.1025460   8.0144596
  27.2598653  17.0632415   9.3117269  29.2360000  16.5760000   8.6690000
  29.1406308  15.5342962   8.9753635  29.7861148  16.6289660   7.7294961
  29.9620000  17.3270000   9.7050000  29.4526357  17.2776856  10.5757559
  30.8808977  16.9266629   9.8293268  30.0508536  18.2922014   9.4211156
  24.3600000  16.2910000   4.8760000  23.3860000  16.2260000   5.6490000
  24.3370000  16.7340000   3.6220000  25.1568354  16.7563446   3.0325342
  23.0680000  17.1910000   3.0610000  22.2660249  16.7412313   3.6463574
  22.8800000  18.7110000   3.0600000  21.8779662  18.9675473   2.7161816
  23.0332962  19.1113293   4.0621660  23.8220000  19.2580000   2.1930000
  23.7240087  20.2128182   2.1751169  22.9800000  16.7420000   1.5940000
  24.0150000  16.5670000   0.9160000  21.7470000  16.5650000   1.2330000
  20.9837931  16.5667205   1.8945222  21.4520000  16.2020000  -0.1920000
  22.0495996  15.3118966  -0.3886974  19.9910000  15.8490000  -0.3560000
  19.3801997  16.7326498  -0.1711056  19.8146435  15.4918546  -1.3706161
  19.7233969  15.0676505   0.3553232  21.8890000  17.2640000  -1.2040000
  22.3200000  16.9590000  -2.3380000  21.8350000  18.5300000  -0.8190000
  21.4591963  18.7386444   0.0949685  22.2350000  19.6200000  -1.6520000
  21.7447612  19.6173770  -2.6255288  21.7660000  20.8690000  -0.8650000
  22.5252565  21.0619784  -0.1071161  21.7451836  21.6947421  -1.5762080
  20.3670000  20.7370000  -0.1790000  20.2844605  21.7925724   0.0799497
  19.7349944  20.5244607  -1.0412616  19.9190000  19.8940000   0.9940000
  19.4140000  18.7840000   1.2120000  19.9120000  20.2530000   2.2020000
  23.7400000  19.5540000  -1.8910000  24.1370000  19.7300000  -3.0530000
  24.5370000  19.3310000  -0.8580000  24.1757597  18.9447309   0.0024656
  25.9610000  19.2880000  -1.0820000  26.3176581  20.2931291  -1.3069660
  26.6950000  18.7780000   0.1110000  25.9231114  18.2950623   0.7102148
  27.3423871  18.0184231  -0.3272157  27.4990000  19.6740000   0.9720000
  26.7590000  20.5720000   1.3750000  28.6550000  19.1950000   1.0200000
  26.2800000  18.0710000  -1.9610000  27.1490000  18.1650000  -2.7950000
  25.6050000  16.9560000  -1.7320000  24.9690885  16.9186165  -0.9482154
  25.8220000  15.7530000  -2.4930000  26.8636715  15.4392513  -2.4253140
  24.9410000  14.6440000  -1.9260000  25.1991013  14.4727308  -0.8809403
  23.8940120  14.9386114  -1.9975565  25.0550000  13.0600000  -2.8150000
  25.5910000  15.9980000  -3.9940000  26.3970000  15.6890000  -4.8710000
  24.4050000  16.5650000  -4.2120000  23.7403140  16.7013497  -3.4638686
  23.9750000  16.8600000  -5.5920000  24.1534064  15.9774812  -6.2063540
  22.4810000  17.2370000  -5.6920000  22.2400530  17.9553027  -4.9083642
  22.2897198  17.6857071  -6.6667686  21.6190000  16.0020000  -5.5270000
  21.9056792  15.6057556  -4.5528818  20.6025222  16.3921099  -5.4751427
  21.6840000  14.6730000  -6.7520000  20.8960000  15.4810000  -8.1520000
  21.4692586  16.3648012  -8.4319445  20.8571558  14.7915865  -8.9953865
  19.8832691  15.7770666  -7.8784639  24.8650000  17.9090000  -6.2590000
  25.2540000  17.7140000  -7.4320000  25.2060000  18.9310000  -5.5560000
  24.8777824  18.9909848  -4.6027034  26.1110000  19.9700000  -6.0440000
  25.6691846  20.4893963  -6.8943681  26.3650000  20.9890000  -4.9250000
  25.3928221  21.2746053  -4.5232550  26.9419018  20.4810042  -4.1521969
  27.1060000  22.2250000  -5.3750000  28.1553427  22.1488767  -5.0900685
  27.0304080  22.3253551  -6.4577358  26.4940000  23.4310000  -4.7160000
  27.0758386  24.3359360  -4.8910819  25.4638953  23.5951076  -5.0323107
  26.5030000  23.1430000  -3.3080000  27.2386717  22.6073328  -2.8698822
  25.5360000  23.6350000  -2.5430000  24.5540000  24.3680000  -3.0340000
  24.5242843  24.5695312  -4.0232432  23.8369481  24.7238855  -2.4181415
  25.5330000  23.3480000  -1.2710000  26.2594758  22.7605642  -0.8872655
  24.8042144  23.7144823  -0.6754659  27.4930000  19.4190000  -6.4000000
  28.1050000  19.8940000  -7.3790000  28.0140000  18.4460000  -5.6470000
  27.5189161  18.1122968  -4.8323630  29.3170000  17.8890000  -5.9330000
  30.0506960  18.5770969  -6.3528954  29.8840000  17.3080000  -4.5990000
  29.1645270  16.5862890  -4.2122286  31.2520000  16.6170000  -4.7940000
  31.9721649  17.3382517  -5.1803394  31.6036574  16.2298077  -3.8376955
  31.1466961  15.7947363  -5.5017387  29.9150000  18.3560000  -3.6280000
  30.2617316  18.0151240  -2.8002433  29.3600000  16.8110000  -7.0190000
  30.3230000  16.7530000  -7.8360000  28.3640000  15.9190000  -6.9800000
  27.6329249  16.0159765  -6.2899100  28.3370000  14.7790000  -7.8390000
  29.2399207  14.7302892  -8.4476548  28.2650000  13.5200000  -6.9680000
  27.3256021  13.5132336  -6.4152025  28.3191191  12.6351893  -7.6022563
  29.6640000  13.1610000  -5.8930000  27.2580000  14.6630000  -8.8990000
  27.4840000  13.8310000  -9.7330000  26.2480000  15.4350000  -8.7660000
  26.0740709  16.1590468  -8.0836479  25.2210000  15.1800000  -9.7910000
  25.2693583  14.1048729  -9.9638072  24.2792935  15.4266602  -9.3006462
  25.2860000  15.9050000 -11.1390000  26.2200000  16.5400000 -11.5840000
  24.1410000  15.7350000 -11.7660000  23.5982445  15.1387820 -11.1576909
  23.5320000  16.1790000 -13.0380000  23.7278655  17.2401626 -13.1918502
  23.9500511  15.6088813 -13.8676368  21.9820000  15.9480000 -12.9900000
  21.1390000  16.1120000 -12.0360000  21.5330000  15.4500000 -14.1750000
  21.9833917  15.5426499 -15.0742567  20.0580000  15.1480000 -14.1430000
  19.7409076  14.9034944 -13.1292108  19.3370000  16.3850000 -14.5850000
  19.6372735  16.6373930 -15.6019728  18.2616793  16.2088730 -14.5573433
  19.5868355  17.2098262 -13.9176596  20.0050000  13.7270000 -14.7270000
  20.3520000  13.5310000 -15.9220000  19.6806828  12.7743594 -14.0214975
