
  447  0.0000000e+00
 -10.9760000  -4.8130000   9.8910000 -11.2780000  -4.9810000   8.9950000
 -11.7210000  -6.2880000   8.6500000 -12.5690000  -6.5560000   9.2800000
 -10.9130000  -7.0030000   8.8050000 -12.1470000  -6.3260000   7.2030000
 -12.8550000  -7.1430000   7.0630000 -12.9080000  -5.1270000   6.8880000
 -12.6290000  -4.7320000   5.5570000 -13.5650000  -4.5980000   5.0140000
 -12.0340000  -3.3990000   5.5530000 -11.4890000  -2.7110000   6.6110000
 -11.4560000  -3.1510000   7.5970000 -11.0460000  -1.5270000   6.2840000
 -11.3120000  -1.4230000   4.9270000 -11.0540000  -0.3610000   4.0150000
 -10.5070000   0.7310000   4.2370000 -11.4850000  -0.6660000   2.7270000
 -11.3670000   0.0220000   2.0110000 -12.0870000  -1.8520000   2.3720000
 -12.4580000  -1.9700000   1.0920000 -12.3540000  -1.2790000   0.3630000
 -12.9080000  -2.8360000   0.8310000 -12.3320000  -2.8480000   3.2090000
 -11.9210000  -2.5690000   4.4620000 -11.0180000  -6.3350000   6.1820000
  -9.9580000  -6.0860000   6.1330000 -11.7230000  -5.7990000   4.9440000
 -10.8510000  -5.5910000   4.3240000 -12.5100000  -6.8020000   4.3290000
 -12.7760000  -6.4630000   3.4710000 -10.5150000  -7.6530000   5.9620000
  -8.9880000  -7.8800000   5.5070000  -8.6860000  -9.3250000   5.6330000
  -8.1450000  -6.9050000   6.2320000  -8.9670000  -7.5000000   3.9610000
  -9.7260000  -8.2570000   3.0220000 -10.6840000  -8.5180000   3.4720000
  -9.1790000  -9.1680000   2.7780000  -9.9710000  -7.4700000   1.7540000
 -10.7870000  -7.9350000   1.2010000 -10.4690000  -6.1540000   2.0970000
  -9.9720000  -5.1930000   1.1850000 -10.7510000  -4.5960000   0.7100000
  -9.1980000  -4.2130000   1.9400000  -8.7950000  -4.3110000   3.2470000
  -8.9840000  -5.2090000   3.8160000  -8.1920000  -3.2390000   3.6840000
  -8.1890000  -2.3810000   2.5920000  -7.6710000  -1.0620000   2.4540000
  -7.0950000  -0.3610000   3.3030000  -7.8770000  -0.5560000   1.1740000
  -7.5420000   0.3640000   0.9700000  -8.5100000  -1.2400000   0.1580000
  -8.6240000  -0.6000000  -1.0150000  -8.3060000   0.3340000  -1.2310000
  -9.0950000  -1.0980000  -1.7570000  -8.9950000  -2.4650000   0.2710000
  -8.8050000  -2.9690000   1.5070000  -8.7490000  -7.1890000   0.8920000
  -7.6650000  -7.2000000   1.0010000  -9.1690000  -5.9420000   0.1220000
  -8.1920000  -5.6410000  -0.2550000 -10.0160000  -6.2520000  -0.9640000
 -10.0880000  -5.4580000  -1.4990000  -8.4820000  -8.2810000   0.0210000
  -6.9810000  -8.5970000  -0.4460000  -7.0290000  -9.8660000  -1.2080000
  -6.0880000  -8.4860000   0.7330000  -6.6370000  -7.4230000  -1.4630000
  -6.6830000  -7.6440000  -2.8710000  -7.6910000  -7.9570000  -3.1420000
  -5.9750000  -8.4280000  -3.1390000  -6.3350000  -6.3810000  -3.6260000
  -6.8900000  -6.3670000  -4.5640000  -6.8200000  -5.2220000  -2.8990000
  -5.9750000  -4.1150000  -3.1560000  -6.5130000  -3.3140000  -3.6640000
  -5.5860000  -3.5120000  -1.8710000  -5.6260000  -4.2290000  -0.7060000
  -5.8930000  -5.2750000  -0.7290000  -5.3390000  -3.6570000   0.4730000
  -5.4120000  -4.2460000   1.3870000  -4.9780000  -2.2780000   0.4620000
  -4.7140000  -1.6350000   1.6010000  -4.4630000  -0.6590000   1.5420000
  -4.7680000  -2.1210000   2.4850000  -4.9180000  -1.5760000  -0.6710000
  -5.2180000  -2.1640000  -1.8510000  -5.1770000  -1.5350000  -2.9200000
  -4.8480000  -6.1140000  -3.8110000  -3.9080000  -6.4570000  -3.3780000
  -4.7970000  -4.6010000  -4.0030000  -3.7440000  -4.4530000  -3.7640000
  -5.0280000  -4.2440000  -5.3520000  -4.7850000  -3.3200000  -5.4430000
  -4.3500000  -6.8080000  -4.9550000  -2.7990000  -6.7220000  -5.3560000
  -2.5090000  -7.7990000  -6.3320000  -2.0170000  -6.6580000  -4.0970000
  -2.6660000  -5.3170000  -6.0980000  -2.1900000  -5.2190000  -7.4390000
  -3.0400000  -5.2920000  -8.1170000  -1.4910000  -6.0300000  -7.6450000
  -1.4930000  -3.8940000  -7.6560000  -1.7620000  -3.5120000  -8.6410000
  -2.0220000  -2.9100000  -6.7260000  -0.9830000  -2.0580000  -6.2710000
  -1.2700000  -1.0130000  -6.3850000  -0.8700000  -2.2120000  -4.8210000
  -1.0940000  -3.3430000  -4.0720000  -1.3820000  -4.2640000  -4.5580000
  -0.8650000  -3.1870000  -2.7930000  -0.4600000  -1.8660000  -2.6900000
  -0.0680000  -1.0940000  -1.5890000  -0.0080000  -1.5780000  -0.3510000
   0.2810000  -0.9810000   0.4110000  -0.2510000  -2.5420000  -0.1730000
   0.2740000   0.1930000  -1.8110000   0.2280000   0.6590000  -3.0730000
   0.4970000   1.6840000  -3.2800000  -0.1180000   0.0240000  -4.1940000
  -0.4560000  -1.2500000  -3.9290000   0.0100000  -3.8890000  -7.4100000
   0.7710000  -4.5290000  -6.9630000   0.2810000  -2.4410000  -7.0350000
   1.2590000  -2.5870000  -6.5760000   0.4180000  -1.6340000  -8.1860000
   0.7870000  -0.7960000  -7.8990000   0.7100000  -4.2620000  -8.5940000
   2.2350000  -4.7620000  -8.5270000   2.7270000  -4.8440000  -9.9200000
   2.3130000  -5.9620000  -7.6600000   3.0120000  -3.5810000  -7.8030000
   3.8440000  -2.6890000  -8.5330000   3.3970000  -2.4360000  -9.4940000
   4.8060000  -3.1750000  -8.6970000   4.0570000  -1.4250000  -7.7370000
   3.9630000  -0.5520000  -8.3830000   2.9640000  -1.2970000  -6.7920000
   3.4250000  -0.7060000  -5.5930000   2.8040000   0.1560000  -5.3490000
   3.2280000  -1.6130000  -4.4480000   2.8410000  -2.9190000  -4.6060000
   2.7070000  -3.3260000  -5.5970000   2.6230000  -3.7090000  -3.5430000
   2.2950000  -4.7370000  -3.6990000   2.8300000  -3.1450000  -2.2500000
   2.6300000  -3.8720000  -1.1500000   2.7900000  -3.4270000  -0.2580000
   2.3290000  -4.8330000  -1.2230000   3.2210000  -1.8810000  -2.0880000
   3.4220000  -1.0920000  -3.1630000   3.7770000   0.0930000  -3.0440000
   5.2910000  -1.3900000  -6.8510000   6.0000000  -2.0910000  -6.4100000
   4.8950000  -0.3480000  -5.8130000   5.6940000  -0.5110000  -5.0890000
   4.9850000   0.9660000  -6.3240000   4.8960000   1.5640000  -5.5780000
   6.4410000  -0.9850000  -7.5870000   7.7640000  -1.8950000  -7.6020000
   8.6350000  -1.4280000  -8.7040000   7.3400000  -3.3160000  -7.5750000
   8.4940000  -1.5490000  -6.2300000   9.0920000  -0.2710000  -6.0250000
   8.4480000   0.5020000  -6.4430000  10.0600000  -0.2470000  -6.5260000
   9.2900000  -0.0090000  -4.5490000   9.5170000   1.0470000  -4.4010000
   8.0340000  -0.2130000  -3.8460000   8.2940000  -0.6810000  -2.5330000
   7.8660000  -0.0200000  -1.7790000   7.5680000  -1.9440000  -2.3180000
   7.0990000  -2.6950000  -3.3750000   7.3050000  -2.3620000  -4.3810000
   6.4440000  -3.8470000  -3.2010000   6.0900000  -4.4190000  -4.0590000
   6.2040000  -4.3450000  -1.8830000   5.6180000  -5.3900000  -1.5950000
   6.6970000  -3.5480000  -0.8740000   6.5480000  -3.9140000   0.1420000
   7.3740000  -2.3610000  -1.0110000   7.7900000  -1.7420000  -0.0460000
  10.2600000  -0.9370000  -3.8340000  10.7150000  -1.9150000  -3.9920000
   9.8100000  -0.8140000  -2.3830000  10.3260000  -1.6830000  -1.9740000
  10.3240000   0.3630000  -1.7860000  10.1700000   0.2890000  -0.8410000
  11.6060000  -0.4960000  -3.9960000  12.8390000  -1.5090000  -3.8230000
  13.8760000  -1.1320000  -4.8160000  12.3130000  -2.8950000  -3.8080000
  13.4160000  -1.1950000  -2.3720000  14.6550000  -1.7570000  -1.9460000
  15.3160000  -1.8120000  -2.8110000  14.5010000  -2.7580000  -1.5430000
  15.2930000  -0.8880000  -0.8880000  16.3100000  -1.2270000  -0.6940000
  15.4530000   0.4500000  -1.4320000  14.9370000   1.4020000  -0.5270000
  15.7310000   1.8790000   0.0480000  14.3680000   2.5190000  -1.2950000
  13.4960000   2.2880000  -2.3390000  13.2110000   1.2700000  -2.5590000
  12.9500000   3.2780000  -3.0550000  12.2680000   3.0620000  -3.8780000
  13.2650000   4.6390000  -2.7480000  12.8350000   5.6330000  -3.3350000
  14.1390000   4.7990000  -1.6950000  14.3810000   5.8280000  -1.4280000
  14.7170000   3.8120000  -0.9380000  15.4640000   4.0710000  -0.0080000
  14.4800000  -0.7350000   0.3970000  13.7980000  -1.3780000   0.9530000
  13.9060000   0.6760000   0.3300000  12.8950000   0.4180000   0.0160000
  13.8620000   1.2850000   1.6080000  13.3200000   2.0730000   1.5250000
  15.2890000  -0.9120000   1.5560000  15.2580000  -2.3100000   2.3480000
  16.1170000  -2.1810000   3.5490000  15.5470000  -3.3840000   1.3680000
  13.7460000  -2.4730000   2.8180000  13.3450000  -2.2330000   4.1660000
  13.2480000  -1.1590000   4.3250000  14.0900000  -2.6360000   4.8530000
  12.0120000  -2.8980000   4.4320000  11.4500000  -2.3130000   5.1600000
  11.2070000  -2.8410000   3.2180000  10.7450000  -4.1380000   2.8990000
   9.7210000  -4.2050000   3.2660000  10.6000000  -4.2560000   1.4420000
  11.5410000  -3.6990000   0.6270000  12.3520000  -3.1330000   1.0610000
  11.4850000  -3.8360000  -0.6990000  12.2530000  -3.3700000  -1.3160000
  10.4030000  -4.5750000  -1.2370000  10.3020000  -4.7140000  -2.5580000
   9.5210000  -5.2460000  -2.9160000  10.9900000  -4.2960000  -3.1680000
   9.4660000  -5.1250000  -0.4580000   9.5370000  -4.9810000   0.8910000
   8.6880000  -5.4860000   1.6440000  12.0800000  -4.3810000   4.7910000
  12.7210000  -5.0120000   5.4070000  11.7990000  -5.0800000   3.4680000
  12.8120000  -5.1910000   3.0800000  11.2300000  -6.3580000   3.6690000
  11.2210000  -6.7980000   2.8160000  11.0860000  -4.7390000   5.7450000
  11.4610000  -4.9480000   7.2910000  12.9010000  -5.2910000   7.3900000
  10.4590000  -5.8810000   7.8630000  11.2460000  -3.5100000   7.9380000
   9.9550000  -2.9080000   7.9830000   9.4010000  -3.2780000   8.8460000
   9.4110000  -3.1530000   7.0710000  10.0960000  -1.4090000   8.0900000
  10.4830000  -1.1560000   9.0770000  11.1170000  -0.9520000   7.1720000
  10.8510000   0.4010000   6.8530000  11.6510000   1.0180000   7.2610000
  10.9840000   0.5720000   5.4130000  11.9250000   1.3600000   4.8080000
  12.6280000   1.9270000   5.4010000  11.8630000   1.3380000   3.5070000
  10.8050000   0.4810000   3.2340000  10.2650000   0.0680000   1.9930000
  10.6330000   0.3880000   0.8540000   9.1970000  -0.8070000   2.1480000
   8.7400000  -1.1460000   1.3250000   8.7090000  -1.2300000   3.3630000
   7.6540000  -2.0610000   3.3300000   7.1730000  -2.4000000   2.5090000
   7.2910000  -2.3640000   4.2220000   9.2050000  -0.8540000   4.5340000
  10.2460000  -0.0020000   4.3980000   8.8710000  -0.5960000   7.6980000
   7.9660000  -0.7330000   7.1060000   9.4720000   0.7730000   7.3990000
   8.6560000   1.1860000   6.8060000   9.6250000   1.5310000   8.5820000
   9.8210000   2.4320000   8.3150000   7.9320000  -0.5280000   8.7610000
   6.3700000  -0.4320000   8.4160000   5.6670000   0.0940000   9.6090000
   5.9630000  -1.7400000   7.8550000   6.2920000   0.6530000   7.2550000
   6.1610000   2.0410000   7.5420000   6.9340000   2.3250000   8.2570000
   5.1790000   2.2150000   7.9810000   6.3040000   2.8850000   6.2930000
   7.0170000   3.6850000   6.4910000   6.9310000   2.0890000   5.2500000
   6.3000000   2.3380000   4.0040000   7.0670000   2.3880000   3.2310000
   5.5150000   1.1650000   3.6360000   4.9950000   0.2360000   4.4950000
   5.1460000   0.3270000   5.5600000   4.3350000  -0.7160000   3.8920000
   4.4170000  -0.3850000   2.5450000   3.8890000  -1.0440000   1.3980000
   3.2330000  -2.0950000   1.3470000   4.2010000  -0.3710000   0.2200000
   3.8780000  -0.7550000  -0.6450000   4.9320000   0.7930000   0.1620000
   5.1460000   1.3060000  -1.0590000   4.8380000   0.9240000  -1.9420000
   5.6900000   2.1560000  -1.1020000   5.4280000   1.4190000   1.2200000
   5.1350000   0.7790000   2.3720000   5.0120000   3.3770000   5.6490000
   3.9450000   3.1570000   5.6770000   5.4490000   3.5890000   4.2050000
   4.4880000   3.7730000   3.7240000   6.2620000   4.7380000   4.0860000
   6.3780000   4.9040000   3.1480000   4.6000000   4.6040000   6.2450000
   3.0630000   5.0650000   6.2030000   2.9450000   6.3130000   6.9940000
   2.2350000   3.8920000   6.5690000   2.7970000   5.4120000   4.6720000
   3.3810000   6.5540000   4.0560000   4.4660000   6.4890000   4.1350000
   3.0340000   7.4590000   4.5550000   2.9920000   6.6110000   2.5980000
   3.5670000   7.3920000   2.1010000   3.3950000   5.3830000   1.9330000
   2.4420000   5.0470000   0.9380000   2.8870000   4.9470000  -0.0520000
   1.9200000   3.6960000   1.2050000   1.9460000   3.1450000   2.4710000
   2.3020000   3.7500000   3.2920000   1.5000000   1.9120000   2.7280000
   1.5240000   1.5120000   3.7410000   0.9650000   1.1130000   1.6770000
   0.5090000  -0.0270000   1.7970000   0.9600000   1.7200000   0.4410000
   0.5320000   1.1400000  -0.3760000   1.4140000   2.9810000   0.1340000
   1.3500000   3.4340000  -0.9960000   1.5000000   6.7140000   2.3330000
   0.5690000   6.5730000   2.8820000   1.3590000   6.1260000   0.9350000
   0.2870000   5.9280000   0.9500000   1.6450000   7.0930000  -0.0570000
   1.3550000   6.7280000  -0.8960000   1.0730000   8.0700000   2.3650000
  -0.4940000   8.4080000   2.3930000  -0.6450000   9.8810000   2.4390000
  -1.1130000   7.5710000   3.4490000  -1.0220000   7.8900000   0.9840000
  -1.3550000   8.7960000  -0.0620000  -0.4640000   9.3390000  -0.3770000
  -2.1020000   9.5030000   0.2990000  -1.9160000   8.0390000  -1.2390000
  -1.5830000   8.4940000  -2.1720000  -1.3450000   6.7020000  -1.2610000
  -2.3240000   5.7730000  -1.6950000  -1.8970000   5.1990000  -2.5170000
  -2.5380000   4.7740000  -0.6510000  -2.3440000   4.9100000   0.7030000
  -1.9770000   5.8380000   1.1160000  -2.6420000   3.8340000   1.3790000
  -3.0670000   2.9320000   0.4150000  -3.5230000   1.5930000   0.5480000
  -3.6310000   0.9200000   1.5830000  -3.8590000   1.0360000  -0.6820000
  -4.1940000   0.0940000  -0.6980000  -3.7660000   1.6970000  -1.8880000
  -4.1410000   1.0110000  -2.9760000  -4.4740000   0.0580000  -3.0090000
  -4.0650000   1.4920000  -3.8610000  -3.3400000   2.9440000  -2.0240000
  -3.0110000   3.4980000  -0.8420000  -3.4180000   7.8100000  -1.1950000
  -4.2210000   7.8640000  -0.4590000  -3.5890000   6.5560000  -2.0410000
  -4.5980000   6.2870000  -1.7290000  -3.5880000   6.8550000  -3.4240000
  -3.8860000   6.0660000  -3.8820000  -4.1190000   8.9110000  -1.7560000
  -5.6520000   9.1750000  -1.3630000  -6.0950000  10.3990000  -2.0700000
  -5.7540000   9.1140000   0.1120000  -6.4350000   7.9290000  -1.9660000
  -6.9240000   7.9230000  -3.3030000  -6.1340000   8.2340000  -3.9860000
  -7.7650000   8.6110000  -3.3840000  -7.3820000   6.5330000  -3.6730000
  -7.2150000   6.3620000  -4.7360000  -6.5360000   5.5580000  -3.0110000
  -7.2780000   4.3820000  -2.7470000  -6.8740000   3.5450000  -3.3170000
  -7.0710000   3.9800000  -1.3440000  -6.5930000   4.8590000  -0.4100000
  -6.3920000   5.8820000  -0.6910000  -6.3670000   4.4750000   0.8560000
  -5.9590000   5.1930000   1.5680000  -6.6560000   3.1210000   1.1950000
  -6.4300000   2.6750000   2.4330000  -6.6490000   1.7090000   2.6310000
  -6.0530000   3.2940000   3.1360000  -7.1330000   2.2580000   0.2970000
  -7.3470000   2.6570000  -0.9800000  -7.7830000   1.8770000  -1.8390000
  -8.7890000   6.1720000  -3.2260000  -9.5470000   6.5740000  -2.5530000
  -8.7450000   4.6530000  -3.0930000  -9.5780000   4.5430000  -2.3980000
  -9.0700000   4.0280000  -4.3220000  -9.2330000   3.1010000  -4.1310000
  -9.7450000   6.5760000  -4.2000000 -11.3050000   6.6370000  -3.8320000
 -11.9620000   7.5710000  -4.7800000 -11.4310000   6.8690000  -2.3770000
 -11.8080000   5.1610000  -4.1430000 -13.1120000   4.9220000  -4.6630000
 -13.0750000   4.9100000  -5.7520000 -13.7890000   5.7090000  -4.3310000
 -13.6220000   3.5880000  -4.1690000 -13.9330000   2.9750000  -5.0150000
 -12.5200000   2.8540000  -3.5740000 -13.0010000   2.0290000  -2.5300000
 -12.7910000   0.9940000  -2.7980000 -12.1840000   2.2490000  -1.3240000
 -11.6850000   3.4880000  -1.0250000 -11.8700000   4.3170000  -1.6920000
 -10.9650000   3.6960000   0.0870000 -10.5970000   4.6990000   0.3050000
 -10.7410000   2.5810000   0.9460000 -10.0550000   2.7310000   2.0820000
  -9.9200000   1.9140000   2.6600000  -9.6900000   3.6370000   2.3400000
 -11.2230000   1.3700000   0.6620000 -11.9460000   1.1740000  -0.4640000
 -12.4060000   0.0590000  -0.7510000 -14.6740000   3.6590000  -3.0700000
 -15.0940000   4.4120000  -2.4040000 -14.4820000   2.3560000  -2.3060000
 -14.9060000   2.6830000  -1.3570000 -15.2900000   1.3380000  -2.8550000
 -15.3020000   0.6170000  -2.2210000 -15.9910000   3.7050000  -3.6110000
 -16.6950000   3.7510000  -2.9600000
