default_name
   447
 -10.9763182  -4.8131557   9.8907765 -11.2780000  -4.9810000   8.9950000
 -11.7210000  -6.2880000   8.6500000 -12.5688635  -6.5562529   9.2802924
 -10.9132793  -7.0033865   8.8046298 -12.1470000  -6.3260000   7.2030000
 -12.8545634  -7.1431863   7.0627821 -12.9080000  -5.1270000   6.8880000
 -12.6290000  -4.7320000   5.5570000 -13.5646437  -4.5983952   5.0140254
 -12.0340000  -3.3990000   5.5530000 -11.4890000  -2.7110000   6.6110000
 -11.4563370  -3.1510707   7.5967331 -11.0460000  -1.5270000   6.2840000
 -11.3120000  -1.4230000   4.9270000 -11.0540000  -0.3610000   4.0150000
 -10.5070000   0.7310000   4.2370000 -11.4850000  -0.6660000   2.7270000
 -11.3670557   0.0224838   2.0114036 -12.0870000  -1.8520000   2.3720000
 -12.4580000  -1.9700000   1.0920000 -12.3540678  -1.2788982   0.3628378
 -12.9078474  -2.8356992   0.8306529 -12.3320000  -2.8480000   3.2090000
 -11.9210000  -2.5690000   4.4620000 -11.0180000  -6.3350000   6.1820000
  -9.9579486  -6.0860560   6.1328341 -11.7230000  -5.7990000   4.9440000
 -10.8513079  -5.5905795   4.3236664 -12.5100000  -6.8020000   4.3290000
 -12.7764423  -6.4630986   3.4712384 -10.5150000  -7.6530000   5.9620000
  -8.9880000  -7.8800000   5.5070000  -8.6860000  -9.3250000   5.6330000
  -8.1450000  -6.9050000   6.2320000  -8.9670000  -7.5000000   3.9610000
  -9.7260000  -8.2570000   3.0220000 -10.6836575  -8.5178775   3.4724832
  -9.1794945  -9.1680671   2.7783014  -9.9710000  -7.4700000   1.7540000
 -10.7870277  -7.9351571   1.2009837 -10.4690000  -6.1540000   2.0970000
  -9.9720000  -5.1930000   1.1850000 -10.7507297  -4.5961535   0.7101806
  -9.1980000  -4.2130000   1.9400000  -8.7950000  -4.3110000   3.2470000
  -8.9841887  -5.2093904   3.8157744  -8.1920000  -3.2390000   3.6840000
  -8.1890000  -2.3810000   2.5920000  -7.6710000  -1.0620000   2.4540000
  -7.0950000  -0.3610000   3.3030000  -7.8770000  -0.5560000   1.1740000
  -7.5419301   0.3639309   0.9703977  -8.5100000  -1.2400000   0.1580000
  -8.6240000  -0.6000000  -1.0150000  -8.3061243   0.3339654  -1.2312500
  -9.0954796  -1.0978470  -1.7565903  -8.9950000  -2.4650000   0.2710000
  -8.8050000  -2.9690000   1.5070000  -8.7490000  -7.1890000   0.8920000
  -7.6645544  -7.2004573   1.0012946  -9.1690000  -5.9420000   0.1220000
  -8.1915957  -5.6405649  -0.2547185 -10.0160000  -6.2520000  -0.9640000
 -10.0880277  -5.4583161  -1.4992369  -8.4820000  -8.2810000   0.0210000
  -6.9810000  -8.5970000  -0.4460000  -7.0290000  -9.8660000  -1.2080000
  -6.0880000  -8.4860000   0.7330000  -6.6370000  -7.4230000  -1.4630000
  -6.6830000  -7.6440000  -2.8710000  -7.6911296  -7.9573527  -3.1422652
  -5.9749003  -8.4281887  -3.1388500  -6.3350000  -6.3810000  -3.6260000
  -6.8902951  -6.3670669  -4.5638446  -6.8200000  -5.2220000  -2.8990000
  -5.9750000  -4.1150000  -3.1560000  -6.5126436  -3.3143548  -3.6639427
  -5.5860000  -3.5120000  -1.8710000  -5.6260000  -4.2290000  -0.7060000
  -5.8928531  -5.2752558  -0.7291967  -5.3390000  -3.6570000   0.4730000
  -5.4115462  -4.2460420   1.3872576  -4.9780000  -2.2780000   0.4620000
  -4.7140000  -1.6350000   1.6010000  -4.4627083  -0.6585689   1.5415414
  -4.7677874  -2.1214382   2.4845079  -4.9180000  -1.5760000  -0.6710000
  -5.2180000  -2.1640000  -1.8510000  -5.1770000  -1.5350000  -2.9200000
  -4.8480000  -6.1140000  -3.8110000  -3.9082005  -6.4572347  -3.3784891
  -4.7970000  -4.6010000  -4.0030000  -3.7439395  -4.4529653  -3.7637333
  -5.0280000  -4.2440000  -5.3520000  -4.7854073  -3.3196461  -5.4432102
  -4.3500000  -6.8080000  -4.9550000  -2.7990000  -6.7220000  -5.3560000
  -2.5090000  -7.7990000  -6.3320000  -2.0170000  -6.6580000  -4.0970000
  -2.6660000  -5.3170000  -6.0980000  -2.1900000  -5.2190000  -7.4390000
  -3.0403236  -5.2918392  -8.1170445  -1.4910274  -6.0295563  -7.6452435
  -1.4930000  -3.8940000  -7.6560000  -1.7622644  -3.5115887  -8.6405596
  -2.0220000  -2.9100000  -6.7260000  -0.9830000  -2.0580000  -6.2710000
  -1.2700946  -1.0126920  -6.3850486  -0.8700000  -2.2120000  -4.8210000
  -1.0940000  -3.3430000  -4.0720000  -1.3818456  -4.2637346  -4.5575866
  -0.8650000  -3.1870000  -2.7930000  -0.4600000  -1.8660000  -2.6900000
  -0.0680000  -1.0940000  -1.5890000  -0.0080000  -1.5780000  -0.3510000
   0.2808604  -0.9813669   0.4110301  -0.2513175  -2.5420148  -0.1733179
   0.2740000   0.1930000  -1.8110000   0.2280000   0.6590000  -3.0730000
   0.4965631   1.6844409  -3.2797458  -0.1180000   0.0240000  -4.1940000
  -0.4560000  -1.2500000  -3.9290000   0.0100000  -3.8890000  -7.4100000
   0.7709530  -4.5286312  -6.9628745   0.2810000  -2.4410000  -7.0350000
   1.2586711  -2.5868148  -6.5756565   0.4180000  -1.6340000  -8.1860000
   0.7869866  -0.7956114  -7.8986778   0.7100000  -4.2620000  -8.5940000
   2.2350000  -4.7620000  -8.5270000   2.7270000  -4.8440000  -9.9200000
   2.3130000  -5.9620000  -7.6600000   3.0120000  -3.5810000  -7.8030000
   3.8440000  -2.6890000  -8.5330000   3.3967533  -2.4359975  -9.4942805
   4.8055329  -3.1754757  -8.6970018   4.0570000  -1.4250000  -7.7370000
   3.9630114  -0.5521432  -8.3830546   2.9640000  -1.2970000  -6.7920000
   3.4250000  -0.7060000  -5.5930000   2.8036317   0.1556385  -5.3489104
   3.2280000  -1.6130000  -4.4480000   2.8410000  -2.9190000  -4.6060000
   2.7072175  -3.3263003  -5.5972662   2.6230000  -3.7090000  -3.5430000
   2.2953288  -4.7368788  -3.6985544   2.8300000  -3.1450000  -2.2500000
   2.6300000  -3.8720000  -1.1500000   2.7902301  -3.4270221  -0.2575755
   2.3286685  -4.8332465  -1.2228420   3.2210000  -1.8810000  -2.0880000
   3.4220000  -1.0920000  -3.1630000   3.7770000   0.0930000  -3.0440000
   5.2910000  -1.3900000  -6.8510000   5.9995497  -2.0911247  -6.4100008
   4.8950000  -0.3480000  -5.8130000   5.6936348  -0.5113827  -5.0894064
   4.9850000   0.9660000  -6.3240000   4.8955456   1.5639004  -5.5782697
   6.4410000  -0.9850000  -7.5870000   7.7640000  -1.8950000  -7.6020000
   8.6350000  -1.4280000  -8.7040000   7.3400000  -3.3160000  -7.5750000
   8.4940000  -1.5490000  -6.2300000   9.0920000  -0.2710000  -6.0250000
   8.4475504   0.5023939  -6.4429075  10.0596498  -0.2468352  -6.5261691
   9.2900000  -0.0090000  -4.5490000   9.5172732   1.0467501  -4.4012232
   8.0340000  -0.2130000  -3.8460000   8.2940000  -0.6810000  -2.5330000
   7.8658268  -0.0204963  -1.7790094   7.5680000  -1.9440000  -2.3180000
   7.0990000  -2.6950000  -3.3750000   7.3049258  -2.3618688  -4.3814882
   6.4440000  -3.8470000  -3.2010000   6.0899379  -4.4190374  -4.0586208
   6.2040000  -4.3450000  -1.8830000   5.6180000  -5.3900000  -1.5950000
   6.6970000  -3.5480000  -0.8740000   6.5477095  -3.9136117   0.1419435
   7.3740000  -2.3610000  -1.0110000   7.7900000  -1.7420000  -0.0460000
  10.2600000  -0.9370000  -3.8340000  10.7147765  -1.9149613  -3.9916982
   9.8100000  -0.8140000  -2.3830000  10.3257266  -1.6830301  -1.9744515
  10.3240000   0.3630000  -1.7860000  10.1695164   0.2890860  -0.8413984
  11.6060000  -0.4960000  -3.9960000  12.8390000  -1.5090000  -3.8230000
  13.8760000  -1.1320000  -4.8160000  12.3130000  -2.8950000  -3.8080000
  13.4160000  -1.1950000  -2.3720000  14.6550000  -1.7570000  -1.9460000
  15.3158617  -1.8117806  -2.8110786  14.5014222  -2.7579668  -1.5427878
  15.2930000  -0.8880000  -0.8880000  16.3104941  -1.2273250  -0.6939288
  15.4530000   0.4500000  -1.4320000  14.9370000   1.4020000  -0.5270000
  15.7310937   1.8787426   0.0476572  14.3680000   2.5190000  -1.2950000
  13.4960000   2.2880000  -2.3390000  13.2109546   1.2698440  -2.5592448
  12.9500000   3.2780000  -3.0550000  12.2684927   3.0621433  -3.8778328
  13.2650000   4.6390000  -2.7480000  12.8350000   5.6330000  -3.3350000
  14.1390000   4.7990000  -1.6950000  14.3805896   5.8277330  -1.4277108
  14.7170000   3.8120000  -0.9380000  15.4640000   4.0710000  -0.0080000
  14.4800000  -0.7350000   0.3970000  13.7984680  -1.3784443   0.9534102
  13.9060000   0.6760000   0.3300000  12.8945961   0.4179275   0.0160575
  13.8620000   1.2850000   1.6080000  13.3203937   2.0732515   1.5247969
  15.2890000  -0.9120000   1.5560000  15.2580000  -2.3100000   2.3480000
  16.1170000  -2.1810000   3.5490000  15.5470000  -3.3840000   1.3680000
  13.7460000  -2.4730000   2.8180000  13.3450000  -2.2330000   4.1660000
  13.2478250  -1.1591032   4.3253824  14.0896840  -2.6357639   4.8525330
  12.0120000  -2.8980000   4.4320000  11.4497820  -2.3133326   5.1601307
  11.2070000  -2.8410000   3.2180000  10.7450000  -4.1380000   2.8990000
   9.7208494  -4.2051445   3.2660238  10.6000000  -4.2560000   1.4420000
  11.5410000  -3.6990000   0.6270000  12.3519759  -3.1330914   1.0611261
  11.4850000  -3.8360000  -0.6990000  12.2531228  -3.3702609  -1.3163935
  10.4030000  -4.5750000  -1.2370000  10.3020000  -4.7140000  -2.5580000
   9.5212840  -5.2455496  -2.9158242  10.9902280  -4.2964059  -3.1679663
   9.4660000  -5.1250000  -0.4580000   9.5370000  -4.9810000   0.8910000
   8.6880000  -5.4860000   1.6440000  12.0800000  -4.3810000   4.7910000
  12.7206078  -5.0124257   5.4066476  11.7990000  -5.0800000   3.4680000
  12.8115732  -5.1906201   3.0799822  11.2300000  -6.3580000   3.6690000
  11.2209139  -6.7984945   2.8160741  11.0860000  -4.7390000   5.7450000
  11.4610000  -4.9480000   7.2910000  12.9010000  -5.2910000   7.3900000
  10.4590000  -5.8810000   7.8630000  11.2460000  -3.5100000   7.9380000
   9.9550000  -2.9080000   7.9830000   9.4013038  -3.2783069   8.8457823
   9.4110622  -3.1525094   7.0706144  10.0960000  -1.4090000   8.0900000
  10.4830897  -1.1557905   9.0769883  11.1170000  -0.9520000   7.1720000
  10.8510000   0.4010000   6.8530000  11.6512126   1.0184817   7.2610139
  10.9840000   0.5720000   5.4130000  11.9250000   1.3600000   4.8080000
  12.6275825   1.9271607   5.4005442  11.8630000   1.3380000   3.5070000
  10.8050000   0.4810000   3.2340000  10.2650000   0.0680000   1.9930000
  10.6330000   0.3880000   0.8540000   9.1970000  -0.8070000   2.1480000
   8.7401298  -1.1456228   1.3254414   8.7090000  -1.2300000   3.3630000
   7.6540000  -2.0610000   3.3300000   7.1727623  -2.4000674   2.5093028
   7.2905912  -2.3643594   4.2221929   9.2050000  -0.8540000   4.5340000
  10.2460000  -0.0020000   4.3980000   8.8710000  -0.5960000   7.6980000
   7.9659125  -0.7325707   7.1061690   9.4720000   0.7730000   7.3990000
   8.6556864   1.1860632   6.8064546   9.6250000   1.5310000   8.5820000
   9.8210800   2.4319427   8.3146886   7.9320000  -0.5280000   8.7610000
   6.3700000  -0.4320000   8.4160000   5.6670000   0.0940000   9.6090000
   5.9630000  -1.7400000   7.8550000   6.2920000   0.6530000   7.2550000
   6.1610000   2.0410000   7.5420000   6.9335943   2.3247798   8.2566098
   5.1787856   2.2149017   7.9814471   6.3040000   2.8850000   6.2930000
   7.0168057   3.6854222   6.4913221   6.9310000   2.0890000   5.2500000
   6.3000000   2.3380000   4.0040000   7.0665858   2.3882417   3.2307463
   5.5150000   1.1650000   3.6360000   4.9950000   0.2360000   4.4950000
   5.1464047   0.3269968   5.5604568   4.3350000  -0.7160000   3.8920000
   4.4170000  -0.3850000   2.5450000   3.8890000  -1.0440000   1.3980000
   3.2330000  -2.0950000   1.3470000   4.2010000  -0.3710000   0.2200000
   3.8778439  -0.7550576  -0.6449095   4.9320000   0.7930000   0.1620000
   5.1460000   1.3060000  -1.0590000   4.8379182   0.9235193  -1.9415500
   5.6900883   2.1558214  -1.1022712   5.4280000   1.4190000   1.2200000
   5.1350000   0.7790000   2.3720000   5.0120000   3.3770000   5.6490000
   3.9447086   3.1574588   5.6770980   5.4490000   3.5890000   4.2050000
   4.4882134   3.7729919   3.7242346   6.2620000   4.7380000   4.0860000
   6.3777630   4.9039572   3.1475663   4.6000000   4.6040000   6.2450000
   3.0630000   5.0650000   6.2030000   2.9450000   6.3130000   6.9940000
   2.2350000   3.8920000   6.5690000   2.7970000   5.4120000   4.6720000
   3.3810000   6.5540000   4.0560000   4.4662096   6.4894128   4.1350488
   3.0340817   7.4588232   4.5550425   2.9920000   6.6110000   2.5980000
   3.5669261   7.3921749   2.1006822   3.3950000   5.3830000   1.9330000
   2.4420000   5.0470000   0.9380000   2.8873859   4.9467277  -0.0517859
   1.9200000   3.6960000   1.2050000   1.9460000   3.1450000   2.4710000
   2.3018699   3.7498731   3.2919052   1.5000000   1.9120000   2.7280000
   1.5238350   1.5115517   3.7414955   0.9650000   1.1130000   1.6770000
   0.5090000  -0.0270000   1.7970000   0.9600000   1.7200000   0.4410000
   0.5319916   1.1397706  -0.3764615   1.4140000   2.9810000   0.1340000
   1.3500000   3.4340000  -0.9960000   1.5000000   6.7140000   2.3330000
   0.5689786   6.5730642   2.8820310   1.3590000   6.1260000   0.9350000
   0.2872690   5.9278585   0.9502266   1.6450000   7.0930000  -0.0570000
   1.3548018   6.7283959  -0.8963149   1.0730000   8.0700000   2.3650000
  -0.4940000   8.4080000   2.3930000  -0.6450000   9.8810000   2.4390000
  -1.1130000   7.5710000   3.4490000  -1.0220000   7.8900000   0.9840000
  -1.3550000   8.7960000  -0.0620000  -0.4640334   9.3391708  -0.3770301
  -2.1023057   9.5028489   0.2985545  -1.9160000   8.0390000  -1.2390000
  -1.5825926   8.4936807  -2.1718474  -1.3450000   6.7020000  -1.2610000
  -2.3240000   5.7730000  -1.6950000  -1.8965535   5.1991903  -2.5172720
  -2.5380000   4.7740000  -0.6510000  -2.3440000   4.9100000   0.7030000
  -1.9770800   5.8379552   1.1161232  -2.6420000   3.8340000   1.3790000
  -3.0670000   2.9320000   0.4150000  -3.5230000   1.5930000   0.5480000
  -3.6310000   0.9200000   1.5830000  -3.8590000   1.0360000  -0.6820000
  -4.1938527   0.0938697  -0.6982106  -3.7660000   1.6970000  -1.8880000
  -4.1410000   1.0110000  -2.9760000  -4.4736530   0.0579209  -3.0089016
  -4.0648303   1.4918129  -3.8609396  -3.3400000   2.9440000  -2.0240000
  -3.0110000   3.4980000  -0.8420000  -3.4180000   7.8100000  -1.1950000
  -4.2205238   7.8642318  -0.4593961  -3.5890000   6.5560000  -2.0410000
  -4.5979611   6.2865135  -1.7287920  -3.5880000   6.8550000  -3.4240000
  -3.8861035   6.0657243  -3.8820162  -4.1190000   8.9110000  -1.7560000
  -5.6520000   9.1750000  -1.3630000  -6.0950000  10.3990000  -2.0700000
  -5.7540000   9.1140000   0.1120000  -6.4350000   7.9290000  -1.9660000
  -6.9240000   7.9230000  -3.3030000  -6.1337593   8.2336763  -3.9864471
  -7.7654355   8.6110737  -3.3844958  -7.3820000   6.5330000  -3.6730000
  -7.2152180   6.3619061  -4.7364895  -6.5360000   5.5580000  -3.0110000
  -7.2780000   4.3820000  -2.7470000  -6.8741623   3.5452295  -3.3169381
  -7.0710000   3.9800000  -1.3440000  -6.5930000   4.8590000  -0.4100000
  -6.3918306   5.8823270  -0.6905935  -6.3670000   4.4750000   0.8560000
  -5.9591935   5.1927916   1.5677369  -6.6560000   3.1210000   1.1950000
  -6.4300000   2.6750000   2.4330000  -6.6485943   1.7090753   2.6312588
  -6.0530718   3.2941654   3.1363213  -7.1330000   2.2580000   0.2970000
  -7.3470000   2.6570000  -0.9800000  -7.7830000   1.8770000  -1.8390000
  -8.7890000   6.1720000  -3.2260000  -9.5465186   6.5738397  -2.5531038
  -8.7450000   4.6530000  -3.0930000  -9.5777446   4.5425466  -2.3984240
  -9.0700000   4.0280000  -4.3220000  -9.2328448   3.1013493  -4.1312104
  -9.7450000   6.5760000  -4.2000000 -11.3050000   6.6370000  -3.8320000
 -11.9620000   7.5710000  -4.7800000 -11.4310000   6.8690000  -2.3770000
 -11.8080000   5.1610000  -4.1430000 -13.1120000   4.9220000  -4.6630000
 -13.0753290   4.9104948  -5.7523222 -13.7885833   5.7094933  -4.3310514
 -13.6220000   3.5880000  -4.1690000 -13.9331640   2.9750886  -5.0149408
 -12.5200000   2.8540000  -3.5740000 -13.0010000   2.0290000  -2.5300000
 -12.7907146   0.9936513  -2.7982021 -12.1840000   2.2490000  -1.3240000
 -11.6850000   3.4880000  -1.0250000 -11.8703065   4.3173218  -1.6915484
 -10.9650000   3.6960000   0.0870000 -10.5970858   4.6986317   0.3048741
 -10.7410000   2.5810000   0.9460000 -10.0550000   2.7310000   2.0820000
  -9.9200791   1.9140459   2.6603450  -9.6898534   3.6365200   2.3404626
 -11.2230000   1.3700000   0.6620000 -11.9460000   1.1740000  -0.4640000
 -12.4060000   0.0590000  -0.7510000 -14.6740000   3.6590000  -3.0700000
 -15.0938004   4.4124673  -2.4035516 -14.4820000   2.3560000  -2.3060000
 -14.9060332   2.6834862  -1.3567646 -15.2900000   1.3380000  -2.8550000
 -15.3021427   0.6169208  -2.2213614 -15.9910000   3.7050000  -3.6110000
 -16.6951404   3.7506295  -2.9600753
