%VERSION  VERSION_STAMP = V0001.000  DATE = 08/25/26  02:18:26
%FLAG TITLE
%FORMAT(20a4)
DG5 
%FLAG POINTERS
%FORMAT(10I8)
     818      15     279     602     656     927    1466    1949       0       0
    4556      26     602     927    1949      52     110      82      30       0
       0       0       0       0       0       0       0       0      33       0
       0
%FLAG ATOM_NAME
%FORMAT(20a4)
P   OP1 OP2 O5' C5' H5' H5''C4' H4' O4' C1' H1' N9  C8  H8  N7  C5  C6  O6  N1  
H1  C2  N2  H21 H22 N3  C4  C3' H3' C2' H2' H2''O3' P   OP1 OP2 O5' C5' H5' H5''
C4' H4' O4' C1' H1' N9  C8  H8  N7  C5  C6  N6  H61 H62 N1  C2  H2  N3  C4  C3' 
H3' C2' H2' H2''O3' P   OP1 OP2 O5' C5' H5' H5''C4' H4' O4' C1' H1' N9  C8  H8  
N7  C5  C6  O6  N1  H1  C2  N2  H21 H22 N3  C4  C3' H3' C2' H2' H2''O3' P   OP1 
OP2 O5' C5' H5' H5''C4' H4' O4' C1' H1' N9  C8  H8  N7  C5  C6  N6  H61 H62 N1  
C2  H2  N3  C4  C3' H3' C2' H2' H2''O3' P   OP1 OP2 O5' C5' H5' H5''C4' H4' O4' 
C1' H1' N9  C8  H8  N7  C5  C6  O6  N1  H1  C2  N2  H21 H22 N3  C4  C3' H3' C2' 
H2' H2''O3' P   OP1 OP2 O5' C5' H5' H5''C4' H4' O4' C1' H1' N9  C8  H8  N7  C5  
C6  O6  N1  H1  C2  N2  H21 H22 N3  C4  C3' H3' C2' H2' H2''O3' P   OP1 OP2 O5' 
C5' H5' H5''C4' H4' O4' C1' H1' N9  C8  H8  N7  C5  C6  N6  H61 H62 N1  C2  H2  
N3  C4  C3' H3' C2' H2' H2''O3' P   OP1 OP2 O5' C5' H5' H5''C4' H4' O4' C1' H1' 
N9  C8  H8  N7  C5  C6  N6  H61 H62 N1  C2  H2  N3  C4  C3' H3' C2' H2' H2''O3' 
P   OP1 OP2 O5' C5' H5' H5''C4' H4' O4' C1' H1' N9  C8  H8  N7  C5  C6  O6  N1  
H1  C2  N2  H21 H22 N3  C4  C3' H3' C2' H2' H2''O3' P   OP1 OP2 O5' C5' H5' H5''
C4' H4' O4' C1' H1' N9  C8  H8  N7  C5  C6  N6  H61 H62 N1  C2  H2  N3  C4  C3' 
H3' C2' H2' H2''O3' P   OP1 OP2 O5' C5' H5' H5''C4' H4' O4' C1' H1' N9  C8  H8  
N7  C5  C6  O6  N1  H1  C2  N2  H21 H22 N3  C4  C3' H3' C2' H2' H2''O3' P   OP1 
OP2 O5' C5' H5' H5''C4' H4' O4' C1' H1' N9  C8  H8  N7  C5  C6  N6  H61 H62 N1  
C2  H2  N3  C4  C3' H3' C2' H2' H2''O3' P   OP1 OP2 O5' C5' H5' H5''C4' H4' O4' 
C1' H1' N9  C8  H8  N7  C5  C6  N6  H61 H62 N1  C2  H2  N3  C4  C3' H3' C2' H2' 
H2''O3' P   OP1 OP2 O5' C5' H5' H5''C4' H4' O4' C1' H1' N1  C6  H6  C5  H5  C4  
O4  N3  H3  C2  O2  C3' H3' C2' H2' O2' HO2'O3' P   OP1 OP2 O5' C5' H5' H5''C4' 
H4' O4' C1' H1' N1  C6  H6  C5  H5  C4  O4  N3  H3  C2  O2  C3' H3' C2' H2' O2' 
HO2'O3' P   OP1 OP2 O5' C5' H5' H5''C4' H4' O4' C1' H1' N1  C6  H6  C5  H5  C4  
N4  H41 H42 N3  C2  O2  C3' H3' C2' H2' O2' HO2'O3' P   OP1 OP2 O5' C5' H5' H5''
C4' H4' O4' C1' H1' N1  C6  H6  C5  H5  C4  O4  N3  H3  C2  O2  C3' H3' C2' H2' 
O2' HO2'O3' P   OP1 OP2 O5' C5' H5' H5''C4' H4' O4' C1' H1' N1  C6  H6  C5  H5  
C4  N4  H41 H42 N3  C2  O2  C3' H3' C2' H2' O2' HO2'O3' P   OP1 OP2 O5' C5' H5' 
H5''C4' H4' O4' C1' H1' N1  C6  H6  C5  H5  C4  O4  N3  H3  C2  O2  C3' H3' C2' 
H2' O2' HO2'O3' P   OP1 OP2 O5' C5' H5' H5''C4' H4' O4' C1' H1' N1  C6  H6  C5  
H5  C4  O4  N3  H3  C2  O2  C3' H3' C2' H2' O2' HO2'O3' P   OP1 OP2 O5' C5' H5' 
H5''C4' H4' O4' C1' H1' N1  C6  H6  C5  H5  C4  N4  H41 H42 N3  C2  O2  C3' H3' 
C2' H2' O2' HO2'O3' P   OP1 OP2 O5' C5' H5' H5''C4' H4' O4' C1' H1' N1  C6  H6  
C5  H5  C4  N4  H41 H42 N3  C2  O2  C3' H3' C2' H2' O2' HO2'O3' P   OP1 OP2 O5' 
C5' H5' H5''C4' H4' O4' C1' H1' N1  C6  H6  C5  H5  C4  O4  N3  H3  C2  O2  C3' 
H3' C2' H2' O2' HO2'O3' P   OP1 OP2 O5' C5' H5' H5''C4' H4' O4' C1' H1' N1  C6  
H6  C5  H5  C4  N4  H41 H42 N3  C2  O2  C3' H3' C2' H2' O2' HO2'O3' P   OP1 OP2 
O5' C5' H5' H5''C4' H4' O4' C1' H1' N1  C6  H6  C5  H5  C4  O4  N3  H3  C2  O2  
C3' H3' C2' H2' O2' HO2'O3' P   OP1 OP2 O5' C5' H5' H5''C4' H4' O4' C1' H1' N1  
C6  H6  C5  H5  C4  N4  H41 H42 N3  C2  O2  C3' H3' C2' H2' O2' HO2'O3' 
%FLAG CHARGE
%FORMAT(5E16.8)
  2.12453796E+01 -1.41423270E+01 -1.41423270E+01 -9.02732742E+00 -1.25733870E-01
  1.37396142E+00  1.37396142E+00  2.96841267E+00  2.14294248E+00 -6.72585093E+00
  6.52358340E-01  3.18161358E+00  1.05142671E+00  1.34116128E+00  3.63899331E+00
 -1.04322668E+01  3.62805993E+00  8.96172714E+00 -1.03848888E+01 -9.20772819E+00
  6.41424960E+00  1.35428134E+01 -1.68191829E+01  7.71714405E+00  7.71714405E+00
 -1.20923183E+01  3.30552522E+00  1.29924999E+00  1.79489655E+00 -1.55618442E+00
  1.30836114E+00  1.30836114E+00 -9.53390736E+00  2.12453796E+01 -1.41423270E+01
 -1.41423270E+01 -9.02732742E+00 -1.25733870E-01  1.37396142E+00  1.37396142E+00
  2.96841267E+00  2.14294248E+00 -6.72585093E+00  7.85381130E-01  3.34925874E+00
 -4.88357640E-01  2.92832361E+00  3.42032571E+00 -1.12522703E+01  1.32111675E+00
  1.25679203E+01 -1.66242043E+01  7.59323241E+00  7.59323241E+00 -1.38926815E+01
  1.04158667E+01  1.08969354E+00 -1.35154799E+01  6.92447400E+00  1.29924999E+00
  1.79489655E+00 -1.55618442E+00  1.30836114E+00  1.30836114E+00 -9.53390736E+00
  2.12453796E+01 -1.41423270E+01 -1.41423270E+01 -9.02732742E+00 -1.25733870E-01
  1.37396142E+00  1.37396142E+00  2.96841267E+00  2.14294248E+00 -6.72585093E+00
  6.52358340E-01  3.18161358E+00  1.05142671E+00  1.34116128E+00  3.63899331E+00
 -1.04322668E+01  3.62805993E+00  8.96172714E+00 -1.03848888E+01 -9.20772819E+00
  6.41424960E+00  1.35428134E+01 -1.68191829E+01  7.71714405E+00  7.71714405E+00
 -1.20923183E+01  3.30552522E+00  1.29924999E+00  1.79489655E+00 -1.55618442E+00
  1.30836114E+00  1.30836114E+00 -9.53390736E+00  2.12453796E+01 -1.41423270E+01
 -1.41423270E+01 -9.02732742E+00 -1.25733870E-01  1.37396142E+00  1.37396142E+00
  2.96841267E+00  2.14294248E+00 -6.72585093E+00  7.85381130E-01  3.34925874E+00
 -4.88357640E-01  2.92832361E+00  3.42032571E+00 -1.12522703E+01  1.32111675E+00
  1.25679203E+01 -1.66242043E+01  7.59323241E+00  7.59323241E+00 -1.38926815E+01
  1.04158667E+01  1.08969354E+00 -1.35154799E+01  6.92447400E+00  1.29924999E+00
  1.79489655E+00 -1.55618442E+00  1.30836114E+00  1.30836114E+00 -9.53390736E+00
  2.12453796E+01 -1.41423270E+01 -1.41423270E+01 -9.02732742E+00 -1.25733870E-01
  1.37396142E+00  1.37396142E+00  2.96841267E+00  2.14294248E+00 -6.72585093E+00
  6.52358340E-01  3.18161358E+00  1.05142671E+00  1.34116128E+00  3.63899331E+00
 -1.04322668E+01  3.62805993E+00  8.96172714E+00 -1.03848888E+01 -9.20772819E+00
  6.41424960E+00  1.35428134E+01 -1.68191829E+01  7.71714405E+00  7.71714405E+00
 -1.20923183E+01  3.30552522E+00  1.29924999E+00  1.79489655E+00 -1.55618442E+00
  1.30836114E+00  1.30836114E+00 -9.53390736E+00  2.12453796E+01 -1.41423270E+01
 -1.41423270E+01 -9.02732742E+00 -1.25733870E-01  1.37396142E+00  1.37396142E+00
  2.96841267E+00  2.14294248E+00 -6.72585093E+00  6.52358340E-01  3.18161358E+00
  1.05142671E+00  1.34116128E+00  3.63899331E+00 -1.04322668E+01  3.62805993E+00
  8.96172714E+00 -1.03848888E+01 -9.20772819E+00  6.41424960E+00  1.35428134E+01
 -1.68191829E+01  7.71714405E+00  7.71714405E+00 -1.20923183E+01  3.30552522E+00
  1.29924999E+00  1.79489655E+00 -1.55618442E+00  1.30836114E+00  1.30836114E+00
 -9.53390736E+00  2.12453796E+01 -1.41423270E+01 -1.41423270E+01 -9.02732742E+00
 -1.25733870E-01  1.37396142E+00  1.37396142E+00  2.96841267E+00  2.14294248E+00
 -6.72585093E+00  7.85381130E-01  3.34925874E+00 -4.88357640E-01  2.92832361E+00
  3.42032571E+00 -1.12522703E+01  1.32111675E+00  1.25679203E+01 -1.66242043E+01
  7.59323241E+00  7.59323241E+00 -1.38926815E+01  1.04158667E+01  1.08969354E+00
 -1.35154799E+01  6.92447400E+00  1.29924999E+00  1.79489655E+00 -1.55618442E+00
  1.30836114E+00  1.30836114E+00 -9.53390736E+00  2.12453796E+01 -1.41423270E+01
 -1.41423270E+01 -9.02732742E+00 -1.25733870E-01  1.37396142E+00  1.37396142E+00
  2.96841267E+00  2.14294248E+00 -6.72585093E+00  7.85381130E-01  3.34925874E+00
 -4.88357640E-01  2.92832361E+00  3.42032571E+00 -1.12522703E+01  1.32111675E+00
  1.25679203E+01 -1.66242043E+01  7.59323241E+00  7.59323241E+00 -1.38926815E+01
  1.04158667E+01  1.08969354E+00 -1.35154799E+01  6.92447400E+00  1.29924999E+00
  1.79489655E+00 -1.55618442E+00  1.30836114E+00  1.30836114E+00 -9.53390736E+00
  2.12453796E+01 -1.41423270E+01 -1.41423270E+01 -9.02732742E+00 -1.25733870E-01
  1.37396142E+00  1.37396142E+00  2.96841267E+00  2.14294248E+00 -6.72585093E+00
  6.52358340E-01  3.18161358E+00  1.05142671E+00  1.34116128E+00  3.63899331E+00
 -1.04322668E+01  3.62805993E+00  8.96172714E+00 -1.03848888E+01 -9.20772819E+00
  6.41424960E+00  1.35428134E+01 -1.68191829E+01  7.71714405E+00  7.71714405E+00
 -1.20923183E+01  3.30552522E+00  1.29924999E+00  1.79489655E+00 -1.55618442E+00
  1.30836114E+00  1.30836114E+00 -9.53390736E+00  2.12453796E+01 -1.41423270E+01
 -1.41423270E+01 -9.02732742E+00 -1.25733870E-01  1.37396142E+00  1.37396142E+00
  2.96841267E+00  2.14294248E+00 -6.72585093E+00  7.85381130E-01  3.34925874E+00
 -4.88357640E-01  2.92832361E+00  3.42032571E+00 -1.12522703E+01  1.32111675E+00
  1.25679203E+01 -1.66242043E+01  7.59323241E+00  7.59323241E+00 -1.38926815E+01
  1.04158667E+01  1.08969354E+00 -1.35154799E+01  6.92447400E+00  1.29924999E+00
  1.79489655E+00 -1.55618442E+00  1.30836114E+00  1.30836114E+00 -9.53390736E+00
  2.12453796E+01 -1.41423270E+01 -1.41423270E+01 -9.02732742E+00 -1.25733870E-01
  1.37396142E+00  1.37396142E+00  2.96841267E+00  2.14294248E+00 -6.72585093E+00
  6.52358340E-01  3.18161358E+00  1.05142671E+00  1.34116128E+00  3.63899331E+00
 -1.04322668E+01  3.62805993E+00  8.96172714E+00 -1.03848888E+01 -9.20772819E+00
  6.41424960E+00  1.35428134E+01 -1.68191829E+01  7.71714405E+00  7.71714405E+00
 -1.20923183E+01  3.30552522E+00  1.29924999E+00  1.79489655E+00 -1.55618442E+00
  1.30836114E+00  1.30836114E+00 -9.53390736E+00  2.12453796E+01 -1.41423270E+01
 -1.41423270E+01 -9.02732742E+00 -1.25733870E-01  1.37396142E+00  1.37396142E+00
  2.96841267E+00  2.14294248E+00 -6.72585093E+00  7.85381130E-01  3.34925874E+00
 -4.88357640E-01  2.92832361E+00  3.42032571E+00 -1.12522703E+01  1.32111675E+00
  1.25679203E+01 -1.66242043E+01  7.59323241E+00  7.59323241E+00 -1.38926815E+01
  1.04158667E+01  1.08969354E+00 -1.35154799E+01  6.92447400E+00  1.29924999E+00
  1.79489655E+00 -1.55618442E+00  1.30836114E+00  1.30836114E+00 -9.53390736E+00
  2.12453796E+01 -1.41423270E+01 -1.41423270E+01 -9.02732742E+00 -1.25733870E-01
  1.37396142E+00  1.37396142E+00  2.96841267E+00  2.14294248E+00 -6.72585093E+00
  7.85381130E-01  3.34925874E+00 -4.88357640E-01  2.92832361E+00  3.42032571E+00
 -1.12522703E+01  1.32111675E+00  1.25679203E+01 -1.66242043E+01  7.59323241E+00
  7.59323241E+00 -1.38926815E+01  1.04158667E+01  1.08969354E+00 -1.35154799E+01
  6.92447400E+00  1.29924999E+00  1.79489655E+00 -1.55618442E+00  1.30836114E+00
  1.30836114E+00 -9.53390736E+00  2.12508463E+01 -1.41405048E+01 -1.41405048E+01
 -9.09110547E+00  1.01680434E+00  1.23729417E+00  1.23729417E+00  1.94067495E+00
  2.13929802E+00 -6.46527204E+00  1.22818302E+00  3.32374752E+00  7.61692140E-01
 -2.05183098E+00  3.98703924E+00 -6.62380605E+00  3.30005853E+00  1.08459130E+01
 -1.04978670E+01 -6.46709427E+00  5.74731342E+00  8.54079201E+00 -9.98035371E+00
  3.68454906E+00  1.12067145E+00  1.22089410E+00  1.77120756E+00 -1.11866700E+01
  7.62785478E+00 -9.55941858E+00  2.12508463E+01 -1.41405048E+01 -1.41405048E+01
 -9.09110547E+00  1.01680434E+00  1.23729417E+00  1.23729417E+00  1.94067495E+00
  2.13929802E+00 -6.46527204E+00  1.22818302E+00  3.32374752E+00  7.61692140E-01
 -2.05183098E+00  3.98703924E+00 -6.62380605E+00  3.30005853E+00  1.08459130E+01
 -1.04978670E+01 -6.46709427E+00  5.74731342E+00  8.54079201E+00 -9.98035371E+00
  3.68454906E+00  1.12067145E+00  1.22089410E+00  1.77120756E+00 -1.11866700E+01
  7.62785478E+00 -9.55941858E+00  2.12508463E+01 -1.41405048E+01 -1.41405048E+01
 -9.09110547E+00  1.01680434E+00  1.23729417E+00  1.23729417E+00  1.94067495E+00
  2.13929802E+00 -6.46527204E+00  1.20267180E-01  3.69730467E+00 -8.81959320E-01
  9.65781900E-02  3.56792634E+00 -9.50292945E+00  3.51325944E+00  1.49149526E+01
 -1.73658519E+01  7.71532182E+00  7.71532182E+00 -1.38197923E+01  1.37359697E+01
 -1.13925820E+01  3.68454906E+00  1.12067145E+00  1.22089410E+00  1.77120756E+00
 -1.11866700E+01  7.62785478E+00 -9.55941858E+00  2.12508463E+01 -1.41405048E+01
 -1.41405048E+01 -9.09110547E+00  1.01680434E+00  1.23729417E+00  1.23729417E+00
  1.94067495E+00  2.13929802E+00 -6.46527204E+00  1.22818302E+00  3.32374752E+00
  7.61692140E-01 -2.05183098E+00  3.98703924E+00 -6.62380605E+00  3.30005853E+00
  1.08459130E+01 -1.04978670E+01 -6.46709427E+00  5.74731342E+00  8.54079201E+00
 -9.98035371E+00  3.68454906E+00  1.12067145E+00  1.22089410E+00  1.77120756E+00
 -1.11866700E+01  7.62785478E+00 -9.55941858E+00  2.12508463E+01 -1.41405048E+01
 -1.41405048E+01 -9.09110547E+00  1.01680434E+00  1.23729417E+00  1.23729417E+00
  1.94067495E+00  2.13929802E+00 -6.46527204E+00  1.20267180E-01  3.69730467E+00
 -8.81959320E-01  9.65781900E-02  3.56792634E+00 -9.50292945E+00  3.51325944E+00
  1.49149526E+01 -1.73658519E+01  7.71532182E+00  7.71532182E+00 -1.38197923E+01
  1.37359697E+01 -1.13925820E+01  3.68454906E+00  1.12067145E+00  1.22089410E+00
  1.77120756E+00 -1.11866700E+01  7.62785478E+00 -9.55941858E+00  2.12508463E+01
 -1.41405048E+01 -1.41405048E+01 -9.09110547E+00  1.01680434E+00  1.23729417E+00
  1.23729417E+00  1.94067495E+00  2.13929802E+00 -6.46527204E+00  1.22818302E+00
  3.32374752E+00  7.61692140E-01 -2.05183098E+00  3.98703924E+00 -6.62380605E+00
  3.30005853E+00  1.08459130E+01 -1.04978670E+01 -6.46709427E+00  5.74731342E+00
  8.54079201E+00 -9.98035371E+00  3.68454906E+00  1.12067145E+00  1.22089410E+00
  1.77120756E+00 -1.11866700E+01  7.62785478E+00 -9.55941858E+00  2.12508463E+01
 -1.41405048E+01 -1.41405048E+01 -9.09110547E+00  1.01680434E+00  1.23729417E+00
  1.23729417E+00  1.94067495E+00  2.13929802E+00 -6.46527204E+00  1.22818302E+00
  3.32374752E+00  7.61692140E-01 -2.05183098E+00  3.98703924E+00 -6.62380605E+00
  3.30005853E+00  1.08459130E+01 -1.04978670E+01 -6.46709427E+00  5.74731342E+00
  8.54079201E+00 -9.98035371E+00  3.68454906E+00  1.12067145E+00  1.22089410E+00
  1.77120756E+00 -1.11866700E+01  7.62785478E+00 -9.55941858E+00  2.12508463E+01
 -1.41405048E+01 -1.41405048E+01 -9.09110547E+00  1.01680434E+00  1.23729417E+00
  1.23729417E+00  1.94067495E+00  2.13929802E+00 -6.46527204E+00  1.20267180E-01
  3.69730467E+00 -8.81959320E-01  9.65781900E-02  3.56792634E+00 -9.50292945E+00
  3.51325944E+00  1.49149526E+01 -1.73658519E+01  7.71532182E+00  7.71532182E+00
 -1.38197923E+01  1.37359697E+01 -1.13925820E+01  3.68454906E+00  1.12067145E+00
  1.22089410E+00  1.77120756E+00 -1.11866700E+01  7.62785478E+00 -9.55941858E+00
  2.12508463E+01 -1.41405048E+01 -1.41405048E+01 -9.09110547E+00  1.01680434E+00
  1.23729417E+00  1.23729417E+00  1.94067495E+00  2.13929802E+00 -6.46527204E+00
  1.20267180E-01  3.69730467E+00 -8.81959320E-01  9.65781900E-02  3.56792634E+00
 -9.50292945E+00  3.51325944E+00  1.49149526E+01 -1.73658519E+01  7.71532182E+00
  7.71532182E+00 -1.38197923E+01  1.37359697E+01 -1.13925820E+01  3.68454906E+00
  1.12067145E+00  1.22089410E+00  1.77120756E+00 -1.11866700E+01  7.62785478E+00
 -9.55941858E+00  2.12508463E+01 -1.41405048E+01 -1.41405048E+01 -9.09110547E+00
  1.01680434E+00  1.23729417E+00  1.23729417E+00  1.94067495E+00  2.13929802E+00
 -6.46527204E+00  1.22818302E+00  3.32374752E+00  7.61692140E-01 -2.05183098E+00
  3.98703924E+00 -6.62380605E+00  3.30005853E+00  1.08459130E+01 -1.04978670E+01
 -6.46709427E+00  5.74731342E+00  8.54079201E+00 -9.98035371E+00  3.68454906E+00
  1.12067145E+00  1.22089410E+00  1.77120756E+00 -1.11866700E+01  7.62785478E+00
 -9.55941858E+00  2.12508463E+01 -1.41405048E+01 -1.41405048E+01 -9.09110547E+00
  1.01680434E+00  1.23729417E+00  1.23729417E+00  1.94067495E+00  2.13929802E+00
 -6.46527204E+00  1.20267180E-01  3.69730467E+00 -8.81959320E-01  9.65781900E-02
  3.56792634E+00 -9.50292945E+00  3.51325944E+00  1.49149526E+01 -1.73658519E+01
  7.71532182E+00  7.71532182E+00 -1.38197923E+01  1.37359697E+01 -1.13925820E+01
  3.68454906E+00  1.12067145E+00  1.22089410E+00  1.77120756E+00 -1.11866700E+01
  7.62785478E+00 -9.55941858E+00  2.12508463E+01 -1.41405048E+01 -1.41405048E+01
 -9.09110547E+00  1.01680434E+00  1.23729417E+00  1.23729417E+00  1.94067495E+00
  2.13929802E+00 -6.46527204E+00  1.22818302E+00  3.32374752E+00  7.61692140E-01
 -2.05183098E+00  3.98703924E+00 -6.62380605E+00  3.30005853E+00  1.08459130E+01
 -1.04978670E+01 -6.46709427E+00  5.74731342E+00  8.54079201E+00 -9.98035371E+00
  3.68454906E+00  1.12067145E+00  1.22089410E+00  1.77120756E+00 -1.11866700E+01
  7.62785478E+00 -9.55941858E+00  2.12508463E+01 -1.41405048E+01 -1.41405048E+01
 -9.09110547E+00  1.01680434E+00  1.23729417E+00  1.23729417E+00  1.94067495E+00
  2.13929802E+00 -6.46527204E+00  1.20267180E-01  3.69730467E+00 -8.81959320E-01
  9.65781900E-02  3.56792634E+00 -9.50292945E+00  3.51325944E+00  1.49149526E+01
 -1.73658519E+01  7.71532182E+00  7.71532182E+00 -1.38197923E+01  1.37359697E+01
 -1.13925820E+01  3.68454906E+00  1.12067145E+00  1.22089410E+00  1.77120756E+00
 -1.11866700E+01  7.62785478E+00 -9.55941858E+00
%FLAG ATOMIC_NUMBER
%FORMAT(10I8)
      15       8       8       8       6       1       1       6       1       8
       6       1       7       6       1       7       6       6       8       7
       1       6       7       1       1       7       6       6       1       6
       1       1       8      15       8       8       8       6       1       1
       6       1       8       6       1       7       6       1       7       6
       6       7       1       1       7       6       1       7       6       6
       1       6       1       1       8      15       8       8       8       6
       1       1       6       1       8       6       1       7       6       1
       7       6       6       8       7       1       6       7       1       1
       7       6       6       1       6       1       1       8      15       8
       8       8       6       1       1       6       1       8       6       1
       7       6       1       7       6       6       7       1       1       7
       6       1       7       6       6       1       6       1       1       8
      15       8       8       8       6       1       1       6       1       8
       6       1       7       6       1       7       6       6       8       7
       1       6       7       1       1       7       6       6       1       6
       1       1       8      15       8       8       8       6       1       1
       6       1       8       6       1       7       6       1       7       6
       6       8       7       1       6       7       1       1       7       6
       6       1       6       1       1       8      15       8       8       8
       6       1       1       6       1       8       6       1       7       6
       1       7       6       6       7       1       1       7       6       1
       7       6       6       1       6       1       1       8      15       8
       8       8       6       1       1       6       1       8       6       1
       7       6       1       7       6       6       7       1       1       7
       6       1       7       6       6       1       6       1       1       8
      15       8       8       8       6       1       1       6       1       8
       6       1       7       6       1       7       6       6       8       7
       1       6       7       1       1       7       6       6       1       6
       1       1       8      15       8       8       8       6       1       1
       6       1       8       6       1       7       6       1       7       6
       6       7       1       1       7       6       1       7       6       6
       1       6       1       1       8      15       8       8       8       6
       1       1       6       1       8       6       1       7       6       1
       7       6       6       8       7       1       6       7       1       1
       7       6       6       1       6       1       1       8      15       8
       8       8       6       1       1       6       1       8       6       1
       7       6       1       7       6       6       7       1       1       7
       6       1       7       6       6       1       6       1       1       8
      15       8       8       8       6       1       1       6       1       8
       6       1       7       6       1       7       6       6       7       1
       1       7       6       1       7       6       6       1       6       1
       1       8      15       8       8       8       6       1       1       6
       1       8       6       1       7       6       1       6       1       6
       8       7       1       6       8       6       1       6       1       8
       1       8      15       8       8       8       6       1       1       6
       1       8       6       1       7       6       1       6       1       6
       8       7       1       6       8       6       1       6       1       8
       1       8      15       8       8       8       6       1       1       6
       1       8       6       1       7       6       1       6       1       6
       7       1       1       7       6       8       6       1       6       1
       8       1       8      15       8       8       8       6       1       1
       6       1       8       6       1       7       6       1       6       1
       6       8       7       1       6       8       6       1       6       1
       8       1       8      15       8       8       8       6       1       1
       6       1       8       6       1       7       6       1       6       1
       6       7       1       1       7       6       8       6       1       6
       1       8       1       8      15       8       8       8       6       1
       1       6       1       8       6       1       7       6       1       6
       1       6       8       7       1       6       8       6       1       6
       1       8       1       8      15       8       8       8       6       1
       1       6       1       8       6       1       7       6       1       6
       1       6       8       7       1       6       8       6       1       6
       1       8       1       8      15       8       8       8       6       1
       1       6       1       8       6       1       7       6       1       6
       1       6       7       1       1       7       6       8       6       1
       6       1       8       1       8      15       8       8       8       6
       1       1       6       1       8       6       1       7       6       1
       6       1       6       7       1       1       7       6       8       6
       1       6       1       8       1       8      15       8       8       8
       6       1       1       6       1       8       6       1       7       6
       1       6       1       6       8       7       1       6       8       6
       1       6       1       8       1       8      15       8       8       8
       6       1       1       6       1       8       6       1       7       6
       1       6       1       6       7       1       1       7       6       8
       6       1       6       1       8       1       8      15       8       8
       8       6       1       1       6       1       8       6       1       7
       6       1       6       1       6       8       7       1       6       8
       6       1       6       1       8       1       8      15       8       8
       8       6       1       1       6       1       8       6       1       7
       6       1       6       1       6       7       1       1       7       6
       8       6       1       6       1       8       1       8
%FLAG MASS
%FORMAT(5E16.8)
  3.09700000E+01  1.60000000E+01  1.60000000E+01  1.60000000E+01  1.20100000E+01
  1.00800000E+00  1.00800000E+00  1.20100000E+01  1.00800000E+00  1.60000000E+01
  1.20100000E+01  1.00800000E+00  1.40100000E+01  1.20100000E+01  1.00800000E+00
  1.40100000E+01  1.20100000E+01  1.20100000E+01  1.60000000E+01  1.40100000E+01
  1.00800000E+00  1.20100000E+01  1.40100000E+01  1.00800000E+00  1.00800000E+00
  1.40100000E+01  1.20100000E+01  1.20100000E+01  1.00800000E+00  1.20100000E+01
  1.00800000E+00  1.00800000E+00  1.60000000E+01  3.09700000E+01  1.60000000E+01
  1.60000000E+01  1.60000000E+01  1.20100000E+01  1.00800000E+00  1.00800000E+00
  1.20100000E+01  1.00800000E+00  1.60000000E+01  1.20100000E+01  1.00800000E+00
  1.40100000E+01  1.20100000E+01  1.00800000E+00  1.40100000E+01  1.20100000E+01
  1.20100000E+01  1.40100000E+01  1.00800000E+00  1.00800000E+00  1.40100000E+01
  1.20100000E+01  1.00800000E+00  1.40100000E+01  1.20100000E+01  1.20100000E+01
  1.00800000E+00  1.20100000E+01  1.00800000E+00  1.00800000E+00  1.60000000E+01
  3.09700000E+01  1.60000000E+01  1.60000000E+01  1.60000000E+01  1.20100000E+01
  1.00800000E+00  1.00800000E+00  1.20100000E+01  1.00800000E+00  1.60000000E+01
  1.20100000E+01  1.00800000E+00  1.40100000E+01  1.20100000E+01  1.00800000E+00
  1.40100000E+01  1.20100000E+01  1.20100000E+01  1.60000000E+01  1.40100000E+01
  1.00800000E+00  1.20100000E+01  1.40100000E+01  1.00800000E+00  1.00800000E+00
  1.40100000E+01  1.20100000E+01  1.20100000E+01  1.00800000E+00  1.20100000E+01
  1.00800000E+00  1.00800000E+00  1.60000000E+01  3.09700000E+01  1.60000000E+01
  1.60000000E+01  1.60000000E+01  1.20100000E+01  1.00800000E+00  1.00800000E+00
  1.20100000E+01  1.00800000E+00  1.60000000E+01  1.20100000E+01  1.00800000E+00
  1.40100000E+01  1.20100000E+01  1.00800000E+00  1.40100000E+01  1.20100000E+01
  1.20100000E+01  1.40100000E+01  1.00800000E+00  1.00800000E+00  1.40100000E+01
  1.20100000E+01  1.00800000E+00  1.40100000E+01  1.20100000E+01  1.20100000E+01
  1.00800000E+00  1.20100000E+01  1.00800000E+00  1.00800000E+00  1.60000000E+01
  3.09700000E+01  1.60000000E+01  1.60000000E+01  1.60000000E+01  1.20100000E+01
  1.00800000E+00  1.00800000E+00  1.20100000E+01  1.00800000E+00  1.60000000E+01
  1.20100000E+01  1.00800000E+00  1.40100000E+01  1.20100000E+01  1.00800000E+00
  1.40100000E+01  1.20100000E+01  1.20100000E+01  1.60000000E+01  1.40100000E+01
  1.00800000E+00  1.20100000E+01  1.40100000E+01  1.00800000E+00  1.00800000E+00
  1.40100000E+01  1.20100000E+01  1.20100000E+01  1.00800000E+00  1.20100000E+01
  1.00800000E+00  1.00800000E+00  1.60000000E+01  3.09700000E+01  1.60000000E+01
  1.60000000E+01  1.60000000E+01  1.20100000E+01  1.00800000E+00  1.00800000E+00
  1.20100000E+01  1.00800000E+00  1.60000000E+01  1.20100000E+01  1.00800000E+00
  1.40100000E+01  1.20100000E+01  1.00800000E+00  1.40100000E+01  1.20100000E+01
  1.20100000E+01  1.60000000E+01  1.40100000E+01  1.00800000E+00  1.20100000E+01
  1.40100000E+01  1.00800000E+00  1.00800000E+00  1.40100000E+01  1.20100000E+01
  1.20100000E+01  1.00800000E+00  1.20100000E+01  1.00800000E+00  1.00800000E+00
  1.60000000E+01  3.09700000E+01  1.60000000E+01  1.60000000E+01  1.60000000E+01
  1.20100000E+01  1.00800000E+00  1.00800000E+00  1.20100000E+01  1.00800000E+00
  1.60000000E+01  1.20100000E+01  1.00800000E+00  1.40100000E+01  1.20100000E+01
  1.00800000E+00  1.40100000E+01  1.20100000E+01  1.20100000E+01  1.40100000E+01
  1.00800000E+00  1.00800000E+00  1.40100000E+01  1.20100000E+01  1.00800000E+00
  1.40100000E+01  1.20100000E+01  1.20100000E+01  1.00800000E+00  1.20100000E+01
  1.00800000E+00  1.00800000E+00  1.60000000E+01  3.09700000E+01  1.60000000E+01
  1.60000000E+01  1.60000000E+01  1.20100000E+01  1.00800000E+00  1.00800000E+00
  1.20100000E+01  1.00800000E+00  1.60000000E+01  1.20100000E+01  1.00800000E+00
  1.40100000E+01  1.20100000E+01  1.00800000E+00  1.40100000E+01  1.20100000E+01
  1.20100000E+01  1.40100000E+01  1.00800000E+00  1.00800000E+00  1.40100000E+01
  1.20100000E+01  1.00800000E+00  1.40100000E+01  1.20100000E+01  1.20100000E+01
  1.00800000E+00  1.20100000E+01  1.00800000E+00  1.00800000E+00  1.60000000E+01
  3.09700000E+01  1.60000000E+01  1.60000000E+01  1.60000000E+01  1.20100000E+01
  1.00800000E+00  1.00800000E+00  1.20100000E+01  1.00800000E+00  1.60000000E+01
  1.20100000E+01  1.00800000E+00  1.40100000E+01  1.20100000E+01  1.00800000E+00
  1.40100000E+01  1.20100000E+01  1.20100000E+01  1.60000000E+01  1.40100000E+01
  1.00800000E+00  1.20100000E+01  1.40100000E+01  1.00800000E+00  1.00800000E+00
  1.40100000E+01  1.20100000E+01  1.20100000E+01  1.00800000E+00  1.20100000E+01
  1.00800000E+00  1.00800000E+00  1.60000000E+01  3.09700000E+01  1.60000000E+01
  1.60000000E+01  1.60000000E+01  1.20100000E+01  1.00800000E+00  1.00800000E+00
  1.20100000E+01  1.00800000E+00  1.60000000E+01  1.20100000E+01  1.00800000E+00
  1.40100000E+01  1.20100000E+01  1.00800000E+00  1.40100000E+01  1.20100000E+01
  1.20100000E+01  1.40100000E+01  1.00800000E+00  1.00800000E+00  1.40100000E+01
  1.20100000E+01  1.00800000E+00  1.40100000E+01  1.20100000E+01  1.20100000E+01
  1.00800000E+00  1.20100000E+01  1.00800000E+00  1.00800000E+00  1.60000000E+01
  3.09700000E+01  1.60000000E+01  1.60000000E+01  1.60000000E+01  1.20100000E+01
  1.00800000E+00  1.00800000E+00  1.20100000E+01  1.00800000E+00  1.60000000E+01
  1.20100000E+01  1.00800000E+00  1.40100000E+01  1.20100000E+01  1.00800000E+00
  1.40100000E+01  1.20100000E+01  1.20100000E+01  1.60000000E+01  1.40100000E+01
  1.00800000E+00  1.20100000E+01  1.40100000E+01  1.00800000E+00  1.00800000E+00
  1.40100000E+01  1.20100000E+01  1.20100000E+01  1.00800000E+00  1.20100000E+01
  1.00800000E+00  1.00800000E+00  1.60000000E+01  3.09700000E+01  1.60000000E+01
  1.60000000E+01  1.60000000E+01  1.20100000E+01  1.00800000E+00  1.00800000E+00
  1.20100000E+01  1.00800000E+00  1.60000000E+01  1.20100000E+01  1.00800000E+00
  1.40100000E+01  1.20100000E+01  1.00800000E+00  1.40100000E+01  1.20100000E+01
  1.20100000E+01  1.40100000E+01  1.00800000E+00  1.00800000E+00  1.40100000E+01
  1.20100000E+01  1.00800000E+00  1.40100000E+01  1.20100000E+01  1.20100000E+01
  1.00800000E+00  1.20100000E+01  1.00800000E+00  1.00800000E+00  1.60000000E+01
  3.09700000E+01  1.60000000E+01  1.60000000E+01  1.60000000E+01  1.20100000E+01
  1.00800000E+00  1.00800000E+00  1.20100000E+01  1.00800000E+00  1.60000000E+01
  1.20100000E+01  1.00800000E+00  1.40100000E+01  1.20100000E+01  1.00800000E+00
  1.40100000E+01  1.20100000E+01  1.20100000E+01  1.40100000E+01  1.00800000E+00
  1.00800000E+00  1.40100000E+01  1.20100000E+01  1.00800000E+00  1.40100000E+01
  1.20100000E+01  1.20100000E+01  1.00800000E+00  1.20100000E+01  1.00800000E+00
  1.00800000E+00  1.60000000E+01  3.09700000E+01  1.60000000E+01  1.60000000E+01
  1.60000000E+01  1.20100000E+01  1.00800000E+00  1.00800000E+00  1.20100000E+01
  1.00800000E+00  1.60000000E+01  1.20100000E+01  1.00800000E+00  1.40100000E+01
  1.20100000E+01  1.00800000E+00  1.20100000E+01  1.00800000E+00  1.20100000E+01
  1.60000000E+01  1.40100000E+01  1.00800000E+00  1.20100000E+01  1.60000000E+01
  1.20100000E+01  1.00800000E+00  1.20100000E+01  1.00800000E+00  1.60000000E+01
  1.00800000E+00  1.60000000E+01  3.09700000E+01  1.60000000E+01  1.60000000E+01
  1.60000000E+01  1.20100000E+01  1.00800000E+00  1.00800000E+00  1.20100000E+01
  1.00800000E+00  1.60000000E+01  1.20100000E+01  1.00800000E+00  1.40100000E+01
  1.20100000E+01  1.00800000E+00  1.20100000E+01  1.00800000E+00  1.20100000E+01
  1.60000000E+01  1.40100000E+01  1.00800000E+00  1.20100000E+01  1.60000000E+01
  1.20100000E+01  1.00800000E+00  1.20100000E+01  1.00800000E+00  1.60000000E+01
  1.00800000E+00  1.60000000E+01  3.09700000E+01  1.60000000E+01  1.60000000E+01
  1.60000000E+01  1.20100000E+01  1.00800000E+00  1.00800000E+00  1.20100000E+01
  1.00800000E+00  1.60000000E+01  1.20100000E+01  1.00800000E+00  1.40100000E+01
  1.20100000E+01  1.00800000E+00  1.20100000E+01  1.00800000E+00  1.20100000E+01
  1.40100000E+01  1.00800000E+00  1.00800000E+00  1.40100000E+01  1.20100000E+01
  1.60000000E+01  1.20100000E+01  1.00800000E+00  1.20100000E+01  1.00800000E+00
  1.60000000E+01  1.00800000E+00  1.60000000E+01  3.09700000E+01  1.60000000E+01
  1.60000000E+01  1.60000000E+01  1.20100000E+01  1.00800000E+00  1.00800000E+00
  1.20100000E+01  1.00800000E+00  1.60000000E+01  1.20100000E+01  1.00800000E+00
  1.40100000E+01  1.20100000E+01  1.00800000E+00  1.20100000E+01  1.00800000E+00
  1.20100000E+01  1.60000000E+01  1.40100000E+01  1.00800000E+00  1.20100000E+01
  1.60000000E+01  1.20100000E+01  1.00800000E+00  1.20100000E+01  1.00800000E+00
  1.60000000E+01  1.00800000E+00  1.60000000E+01  3.09700000E+01  1.60000000E+01
  1.60000000E+01  1.60000000E+01  1.20100000E+01  1.00800000E+00  1.00800000E+00
  1.20100000E+01  1.00800000E+00  1.60000000E+01  1.20100000E+01  1.00800000E+00
  1.40100000E+01  1.20100000E+01  1.00800000E+00  1.20100000E+01  1.00800000E+00
  1.20100000E+01  1.40100000E+01  1.00800000E+00  1.00800000E+00  1.40100000E+01
  1.20100000E+01  1.60000000E+01  1.20100000E+01  1.00800000E+00  1.20100000E+01
  1.00800000E+00  1.60000000E+01  1.00800000E+00  1.60000000E+01  3.09700000E+01
  1.60000000E+01  1.60000000E+01  1.60000000E+01  1.20100000E+01  1.00800000E+00
  1.00800000E+00  1.20100000E+01  1.00800000E+00  1.60000000E+01  1.20100000E+01
  1.00800000E+00  1.40100000E+01  1.20100000E+01  1.00800000E+00  1.20100000E+01
  1.00800000E+00  1.20100000E+01  1.60000000E+01  1.40100000E+01  1.00800000E+00
  1.20100000E+01  1.60000000E+01  1.20100000E+01  1.00800000E+00  1.20100000E+01
  1.00800000E+00  1.60000000E+01  1.00800000E+00  1.60000000E+01  3.09700000E+01
  1.60000000E+01  1.60000000E+01  1.60000000E+01  1.20100000E+01  1.00800000E+00
  1.00800000E+00  1.20100000E+01  1.00800000E+00  1.60000000E+01  1.20100000E+01
  1.00800000E+00  1.40100000E+01  1.20100000E+01  1.00800000E+00  1.20100000E+01
  1.00800000E+00  1.20100000E+01  1.60000000E+01  1.40100000E+01  1.00800000E+00
  1.20100000E+01  1.60000000E+01  1.20100000E+01  1.00800000E+00  1.20100000E+01
  1.00800000E+00  1.60000000E+01  1.00800000E+00  1.60000000E+01  3.09700000E+01
  1.60000000E+01  1.60000000E+01  1.60000000E+01  1.20100000E+01  1.00800000E+00
  1.00800000E+00  1.20100000E+01  1.00800000E+00  1.60000000E+01  1.20100000E+01
  1.00800000E+00  1.40100000E+01  1.20100000E+01  1.00800000E+00  1.20100000E+01
  1.00800000E+00  1.20100000E+01  1.40100000E+01  1.00800000E+00  1.00800000E+00
  1.40100000E+01  1.20100000E+01  1.60000000E+01  1.20100000E+01  1.00800000E+00
  1.20100000E+01  1.00800000E+00  1.60000000E+01  1.00800000E+00  1.60000000E+01
  3.09700000E+01  1.60000000E+01  1.60000000E+01  1.60000000E+01  1.20100000E+01
  1.00800000E+00  1.00800000E+00  1.20100000E+01  1.00800000E+00  1.60000000E+01
  1.20100000E+01  1.00800000E+00  1.40100000E+01  1.20100000E+01  1.00800000E+00
  1.20100000E+01  1.00800000E+00  1.20100000E+01  1.40100000E+01  1.00800000E+00
  1.00800000E+00  1.40100000E+01  1.20100000E+01  1.60000000E+01  1.20100000E+01
  1.00800000E+00  1.20100000E+01  1.00800000E+00  1.60000000E+01  1.00800000E+00
  1.60000000E+01  3.09700000E+01  1.60000000E+01  1.60000000E+01  1.60000000E+01
  1.20100000E+01  1.00800000E+00  1.00800000E+00  1.20100000E+01  1.00800000E+00
  1.60000000E+01  1.20100000E+01  1.00800000E+00  1.40100000E+01  1.20100000E+01
  1.00800000E+00  1.20100000E+01  1.00800000E+00  1.20100000E+01  1.60000000E+01
  1.40100000E+01  1.00800000E+00  1.20100000E+01  1.60000000E+01  1.20100000E+01
  1.00800000E+00  1.20100000E+01  1.00800000E+00  1.60000000E+01  1.00800000E+00
  1.60000000E+01  3.09700000E+01  1.60000000E+01  1.60000000E+01  1.60000000E+01
  1.20100000E+01  1.00800000E+00  1.00800000E+00  1.20100000E+01  1.00800000E+00
  1.60000000E+01  1.20100000E+01  1.00800000E+00  1.40100000E+01  1.20100000E+01
  1.00800000E+00  1.20100000E+01  1.00800000E+00  1.20100000E+01  1.40100000E+01
  1.00800000E+00  1.00800000E+00  1.40100000E+01  1.20100000E+01  1.60000000E+01
  1.20100000E+01  1.00800000E+00  1.20100000E+01  1.00800000E+00  1.60000000E+01
  1.00800000E+00  1.60000000E+01  3.09700000E+01  1.60000000E+01  1.60000000E+01
  1.60000000E+01  1.20100000E+01  1.00800000E+00  1.00800000E+00  1.20100000E+01
  1.00800000E+00  1.60000000E+01  1.20100000E+01  1.00800000E+00  1.40100000E+01
  1.20100000E+01  1.00800000E+00  1.20100000E+01  1.00800000E+00  1.20100000E+01
  1.60000000E+01  1.40100000E+01  1.00800000E+00  1.20100000E+01  1.60000000E+01
  1.20100000E+01  1.00800000E+00  1.20100000E+01  1.00800000E+00  1.60000000E+01
  1.00800000E+00  1.60000000E+01  3.09700000E+01  1.60000000E+01  1.60000000E+01
  1.60000000E+01  1.20100000E+01  1.00800000E+00  1.00800000E+00  1.20100000E+01
  1.00800000E+00  1.60000000E+01  1.20100000E+01  1.00800000E+00  1.40100000E+01
  1.20100000E+01  1.00800000E+00  1.20100000E+01  1.00800000E+00  1.20100000E+01
  1.40100000E+01  1.00800000E+00  1.00800000E+00  1.40100000E+01  1.20100000E+01
  1.60000000E+01  1.20100000E+01  1.00800000E+00  1.20100000E+01  1.00800000E+00
  1.60000000E+01  1.00800000E+00  1.60000000E+01
%FLAG ATOM_TYPE_INDEX
%FORMAT(10I8)
      13      10      10       5       3       4       4       3       4       5
       3       6       7       8       9       7       8       8      10       7
      11       8       7      11      11       7       8       3       4       3
      12      12       5      13      10      10       5       3       4       4
       3       4       5       3       6       7       8       9       7       8
       8       7      11      11       7       8       9       7       8       3
       4       3      12      12       5      13      10      10       5       3
       4       4       3       4       5       3       6       7       8       9
       7       8       8      10       7      11       8       7      11      11
       7       8       3       4       3      12      12       5      13      10
      10       5       3       4       4       3       4       5       3       6
       7       8       9       7       8       8       7      11      11       7
       8       9       7       8       3       4       3      12      12       5
      13      10      10       5       3       4       4       3       4       5
       3       6       7       8       9       7       8       8      10       7
      11       8       7      11      11       7       8       3       4       3
      12      12       5      13      10      10       5       3       4       4
       3       4       5       3       6       7       8       9       7       8
       8      10       7      11       8       7      11      11       7       8
       3       4       3      12      12       5      13      10      10       5
       3       4       4       3       4       5       3       6       7       8
       9       7       8       8       7      11      11       7       8       9
       7       8       3       4       3      12      12       5      13      10
      10       5       3       4       4       3       4       5       3       6
       7       8       9       7       8       8       7      11      11       7
       8       9       7       8       3       4       3      12      12       5
      13      10      10       5       3       4       4       3       4       5
       3       6       7       8       9       7       8       8      10       7
      11       8       7      11      11       7       8       3       4       3
      12      12       5      13      10      10       5       3       4       4
       3       4       5       3       6       7       8       9       7       8
       8       7      11      11       7       8       9       7       8       3
       4       3      12      12       5      13      10      10       5       3
       4       4       3       4       5       3       6       7       8       9
       7       8       8      10       7      11       8       7      11      11
       7       8       3       4       3      12      12       5      13      10
      10       5       3       4       4       3       4       5       3       6
       7       8       9       7       8       8       7      11      11       7
       8       9       7       8       3       4       3      12      12       5
      13      10      10       5       3       4       4       3       4       5
       3       6       7       8       9       7       8       8       7      11
      11       7       8       9       7       8       3       4       3      12
      12       5      13      10      10       5       3       4       4       3
       4       5       3       6       7       8      14       8      15       8
      10       7      11       8      10       3       4       3       4       2
       1       5      13      10      10       5       3       4       4       3
       4       5       3       6       7       8      14       8      15       8
      10       7      11       8      10       3       4       3       4       2
       1       5      13      10      10       5       3       4       4       3
       4       5       3       6       7       8      14       8      15       8
       7      11      11       7       8      10       3       4       3       4
       2       1       5      13      10      10       5       3       4       4
       3       4       5       3       6       7       8      14       8      15
       8      10       7      11       8      10       3       4       3       4
       2       1       5      13      10      10       5       3       4       4
       3       4       5       3       6       7       8      14       8      15
       8       7      11      11       7       8      10       3       4       3
       4       2       1       5      13      10      10       5       3       4
       4       3       4       5       3       6       7       8      14       8
      15       8      10       7      11       8      10       3       4       3
       4       2       1       5      13      10      10       5       3       4
       4       3       4       5       3       6       7       8      14       8
      15       8      10       7      11       8      10       3       4       3
       4       2       1       5      13      10      10       5       3       4
       4       3       4       5       3       6       7       8      14       8
      15       8       7      11      11       7       8      10       3       4
       3       4       2       1       5      13      10      10       5       3
       4       4       3       4       5       3       6       7       8      14
       8      15       8       7      11      11       7       8      10       3
       4       3       4       2       1       5      13      10      10       5
       3       4       4       3       4       5       3       6       7       8
      14       8      15       8      10       7      11       8      10       3
       4       3       4       2       1       5      13      10      10       5
       3       4       4       3       4       5       3       6       7       8
      14       8      15       8       7      11      11       7       8      10
       3       4       3       4       2       1       5      13      10      10
       5       3       4       4       3       4       5       3       6       7
       8      14       8      15       8      10       7      11       8      10
       3       4       3       4       2       1       5      13      10      10
       5       3       4       4       3       4       5       3       6       7
       8      14       8      15       8       7      11      11       7       8
      10       3       4       3       4       2       1       5
%FLAG NUMBER_EXCLUDED_ATOMS
%FORMAT(10I8)
       7       3       2       7      10       5       4      12       6      11
      14       7      12       7       3       6       7       7       4       7
       3       5       4       2       1       1       1       9       5       4
       2       1       5       7       3       2       7      10       5       4
      12       6      11      14       7      12       7       3       6       8
       8       5       2       1       4       3       2       1       1       9
       5       4       2       1       5       7       3       2       7      10
       5       4      12       6      11      14       7      12       7       3
       6       7       7       4       7       3       5       4       2       1
       1       1       9       5       4       2       1       5       7       3
       2       7      10       5       4      12       6      11      14       7
      12       7       3       6       8       8       5       2       1       4
       3       2       1       1       9       5       4       2       1       5
       7       3       2       7      10       5       4      12       6      11
      14       7      12       7       3       6       7       7       4       7
       3       5       4       2       1       1       1       9       5       4
       2       1       5       7       3       2       7      10       5       4
      12       6      11      14       7      12       7       3       6       7
       7       4       7       3       5       4       2       1       1       1
       9       5       4       2       1       5       7       3       2       7
      10       5       4      12       6      11      14       7      12       7
       3       6       8       8       5       2       1       4       3       2
       1       1       9       5       4       2       1       5       7       3
       2       7      10       5       4      12       6      11      14       7
      12       7       3       6       8       8       5       2       1       4
       3       2       1       1       9       5       4       2       1       5
       7       3       2       7      10       5       4      12       6      11
      14       7      12       7       3       6       7       7       4       7
       3       5       4       2       1       1       1       9       5       4
       2       1       5       7       3       2       7      10       5       4
      12       6      11      14       7      12       7       3       6       8
       8       5       2       1       4       3       2       1       1       9
       5       4       2       1       5       7       3       2       7      10
       5       4      12       6      11      14       7      12       7       3
       6       7       7       4       7       3       5       4       2       1
       1       1       9       5       4       2       1       5       7       3
       2       7      10       5       4      12       6      11      14       7
      12       7       3       6       8       8       5       2       1       4
       3       2       1       1       9       5       4       2       1       5
       7       3       2       7      10       5       4      11       6      11
      14       7      12       7       3       6       8       8       5       2
       1       4       3       2       1       1       5       4       3       2
       1       1       7       3       2       7      10       5       4      12
       6      11      15       7      13       9       4       6       3       5
       3       3       2       2       1      10       5       5       3       2
       1       5       7       3       2       7      10       5       4      12
       6      11      15       7      13       9       4       6       3       5
       3       3       2       2       1      10       5       5       3       2
       1       5       7       3       2       7      10       5       4      12
       6      11      15       7      12       9       4       7       3       6
       4       2       1       2       2       1      10       5       5       3
       2       1       5       7       3       2       7      10       5       4
      12       6      11      15       7      13       9       4       6       3
       5       3       3       2       2       1      10       5       5       3
       2       1       5       7       3       2       7      10       5       4
      12       6      11      15       7      12       9       4       7       3
       6       4       2       1       2       2       1      10       5       5
       3       2       1       5       7       3       2       7      10       5
       4      12       6      11      15       7      13       9       4       6
       3       5       3       3       2       2       1      10       5       5
       3       2       1       5       7       3       2       7      10       5
       4      12       6      11      15       7      13       9       4       6
       3       5       3       3       2       2       1      10       5       5
       3       2       1       5       7       3       2       7      10       5
       4      12       6      11      15       7      12       9       4       7
       3       6       4       2       1       2       2       1      10       5
       5       3       2       1       5       7       3       2       7      10
       5       4      12       6      11      15       7      12       9       4
       7       3       6       4       2       1       2       2       1      10
       5       5       3       2       1       5       7       3       2       7
      10       5       4      12       6      11      15       7      13       9
       4       6       3       5       3       3       2       2       1      10
       5       5       3       2       1       5       7       3       2       7
      10       5       4      12       6      11      15       7      12       9
       4       7       3       6       4       2       1       2       2       1
      10       5       5       3       2       1       5       7       3       2
       7      10       5       4      12       6      11      15       7      13
       9       4       6       3       5       3       3       2       2       1
      10       5       5       3       2       1       5       7       3       2
       7      10       5       4      11       6      11      15       7      12
       9       4       7       3       6       4       2       1       2       2
       1       6       4       4       3       2       1       1
%FLAG NONBONDED_PARM_INDEX
%FORMAT(10I8)
       1       2       4       7      11      16      22      29      37      46
      56      67      79      92     106       2       3       5       8      12
      17      23      30      38      47      57      68      80      93     107
       4       5       6       9      13      18      24      31      39      48
      58      69      81      94     108       7       8       9      10      14
      19      25      32      40      49      59      70      82      95     109
      11      12      13      14      15      20      26      33      41      50
      60      71      83      96     110      16      17      18      19      20
      21      27      34      42      51      61      72      84      97     111
      22      23      24      25      26      27      28      35      43      52
      62      73      85      98     112      29      30      31      32      33
      34      35      36      44      53      63      74      86      99     113
      37      38      39      40      41      42      43      44      45      54
      64      75      87     100     114      46      47      48      49      50
      51      52      53      54      55      65      76      88     101     115
      56      57      58      59      60      61      62      63      64      65
      66      77      89     102     116      67      68      69      70      71
      72      73      74      75      76      77      78      90     103     117
      79      80      81      82      83      84      85      86      87      88
      89      90      91     104     118      92      93      94      95      96
      97      98      99     100     101     102     103     104     105     119
     106     107     108     109     110     111     112     113     114     115
     116     117     118     119     120
%FLAG RESIDUE_LABEL
%FORMAT(20a4)
DG  DA  DG  DA  DG  DG  DA  DA  DG  DA  DG  DA  DA  U   U   C   U   C   U   U   
C   C   U   C   U   C   
%FLAG RESIDUE_POINTER
%FORMAT(10I8)
       1      34      66      99     131     164     197     229     261     294
     326     359     391     423     453     483     514     544     575     605
     635     666     697     727     758     788
%FLAG BOND_FORCE_CONSTANT
%FORMAT(5E16.8)
  5.25000000E+02  2.30000000E+02  3.20000000E+02  3.40000000E+02  3.10000000E+02
  3.40000000E+02  3.20000000E+02  3.40000000E+02  3.37000000E+02  4.40000000E+02
  3.67000000E+02  5.29000000E+02  4.14000000E+02  4.69000000E+02  4.81000000E+02
  4.34000000E+02  4.83000000E+02  5.02000000E+02  3.67000000E+02  4.36000000E+02
  5.20000000E+02  4.61000000E+02  3.10000000E+02  3.40000000E+02  3.10000000E+02
  3.40000000E+02  5.53000000E+02  3.20000000E+02  4.40000000E+02  3.67000000E+02
  5.29000000E+02  4.47000000E+02  5.70000000E+02  4.18000000E+02  4.34000000E+02
  4.27000000E+02  3.40000000E+02  3.10000000E+02  4.48000000E+02  3.67000000E+02
  5.49000000E+02  3.67000000E+02  4.10000000E+02  4.24000000E+02  3.20000000E+02
  3.20000000E+02  4.48000000E+02  3.67000000E+02  5.49000000E+02  3.67000000E+02
  4.27000000E+02  4.57000000E+02
%FLAG BOND_EQUIL_VALUE
%FORMAT(5E16.8)
  1.48000000E+00  1.61000000E+00  1.41000000E+00  1.09000000E+00  1.52600000E+00
  1.09000000E+00  1.41000000E+00  1.09000000E+00  1.47500000E+00  1.37100000E+00
  1.08000000E+00  1.30400000E+00  1.39100000E+00  1.40400000E+00  1.34000000E+00
  1.01000000E+00  1.33900000E+00  1.32400000E+00  1.08000000E+00  1.37400000E+00
  1.37000000E+00  1.35400000E+00  1.52600000E+00  1.09000000E+00  1.52600000E+00
  1.09000000E+00  9.60000000E-01  1.41000000E+00  1.37100000E+00  1.08000000E+00
  1.30400000E+00  1.41900000E+00  1.22900000E+00  1.38800000E+00  1.01000000E+00
  1.38100000E+00  1.09000000E+00  1.52600000E+00  1.36500000E+00  1.08000000E+00
  1.35000000E+00  1.08000000E+00  1.44400000E+00  1.38300000E+00  1.41000000E+00
  1.41000000E+00  1.36500000E+00  1.08000000E+00  1.35000000E+00  1.08000000E+00
  1.43300000E+00  1.35800000E+00
%FLAG ANGLE_FORCE_CONSTANT
%FORMAT(5E16.8)
  1.40000000E+02  1.00000000E+02  1.00000000E+02  5.00000000E+01  3.50000000E+01
  5.00000000E+01  5.00000000E+01  5.00000000E+01  5.00000000E+01  5.00000000E+01
  6.00000000E+01  5.00000000E+01  5.00000000E+01  5.00000000E+01  7.00000000E+01
  5.00000000E+01  7.00000000E+01  5.00000000E+01  7.00000000E+01  7.00000000E+01
  7.00000000E+01  7.00000000E+01  5.00000000E+01  3.50000000E+01  7.00000000E+01
  7.00000000E+01  7.00000000E+01  5.00000000E+01  7.00000000E+01  7.00000000E+01
  7.00000000E+01  7.00000000E+01  7.00000000E+01  7.00000000E+01  6.30000000E+01
  7.00000000E+01  4.00000000E+01  5.00000000E+01  5.00000000E+01  4.00000000E+01
  5.00000000E+01  5.00000000E+01  5.00000000E+01  5.00000000E+01  4.00000000E+01
  5.00000000E+01  5.00000000E+01  3.50000000E+01  1.00000000E+02  5.00000000E+01
  5.00000000E+01  4.50000000E+01  7.00000000E+01  5.00000000E+01  7.00000000E+01
  5.00000000E+01  7.00000000E+01  7.00000000E+01  8.00000000E+01  7.00000000E+01
  8.00000000E+01  5.00000000E+01  7.00000000E+01  5.00000000E+01  7.00000000E+01
  7.00000000E+01  7.00000000E+01  6.30000000E+01  7.00000000E+01  3.50000000E+01
  5.00000000E+01  5.00000000E+01  5.00000000E+01  7.00000000E+01  5.00000000E+01
  7.00000000E+01  5.00000000E+01  5.00000000E+01  6.30000000E+01  5.00000000E+01
  8.00000000E+01  7.00000000E+01  7.00000000E+01  7.00000000E+01  7.00000000E+01
  7.00000000E+01  8.00000000E+01  4.00000000E+01  5.00000000E+01  4.00000000E+01
  1.00000000E+02  5.00000000E+01  5.00000000E+01  5.50000000E+01  1.00000000E+02
  5.00000000E+01  5.00000000E+01  7.00000000E+01  5.00000000E+01  7.00000000E+01
  5.00000000E+01  5.00000000E+01  6.30000000E+01  5.00000000E+01  7.00000000E+01
  7.00000000E+01  7.00000000E+01  7.00000000E+01  7.00000000E+01  8.00000000E+01
%FLAG ANGLE_EQUIL_VALUE
%FORMAT(5E16.8)
  2.09265067E+00  1.88897066E+00  2.10312265E+00  1.91113635E+00  1.91113635E+00
  1.91113635E+00  1.91113635E+00  1.91113635E+00  1.91113635E+00  1.91113635E+00
  1.91113635E+00  1.91113635E+00  1.91113635E+00  1.91113635E+00  2.24798504E+00
  2.14762857E+00  1.98793087E+00  2.14762857E+00  1.81165254E+00  1.85354046E+00
  2.31081692E+00  2.15548255E+00  2.09439600E+00  2.09439600E+00  2.04727209E+00
  2.08217869E+00  2.06996138E+00  2.01498349E+00  2.25322103E+00  2.20260646E+00
  2.22878641E+00  2.19562514E+00  1.83957782E+00  1.92684432E+00  2.04727209E+00
  1.93731630E+00  1.91113635E+00  1.91113635E+00  1.91113635E+00  1.91113635E+00
  1.91113635E+00  1.91113635E+00  1.91113635E+00  1.91113635E+00  1.91113635E+00
  1.91113635E+00  1.91113635E+00  1.91113635E+00  2.10312265E+00  1.91113635E+00
  1.91113635E+00  1.79070858E+00  2.24798504E+00  2.14762857E+00  1.98793087E+00
  2.14762857E+00  1.81165254E+00  2.26892900E+00  2.24798504E+00  1.94255229E+00
  2.10486798E+00  2.03854544E+00  2.18515316E+00  2.05948940E+00  2.02458280E+00
  2.15199189E+00  1.83957782E+00  2.08043336E+00  1.95826026E+00  1.91113635E+00
  1.91113635E+00  1.91113635E+00  1.91113635E+00  2.11533996E+00  2.07868803E+00
  2.11533996E+00  2.08916001E+00  2.08916001E+00  2.10661331E+00  2.08916001E+00
  2.18689849E+00  1.99142153E+00  2.01411082E+00  2.05250808E+00  2.12232128E+00
  2.20609712E+00  2.11010397E+00  1.91113635E+00  1.91113635E+00  1.91113635E+00
  2.10312265E+00  1.91113635E+00  1.91113635E+00  1.89368305E+00  2.10312265E+00
  1.91113635E+00  1.91113635E+00  2.11533996E+00  2.07868803E+00  2.11533996E+00
  2.08916001E+00  2.08916001E+00  2.04203610E+00  2.15199189E+00  2.09614133E+00
  2.12057595E+00  2.06996138E+00  2.12232128E+00  2.10312265E+00  2.13802925E+00
%FLAG DIHEDRAL_FORCE_CONSTANT
%FORMAT(5E16.8)
  2.50000000E-01  3.83333333E-01  5.27950000E-01  9.12740000E-02  5.35535000E-01
  7.97600000E-02  2.50000000E-01  1.55555556E-01  1.00000000E-01  3.83000000E-01
  2.00000000E-01  2.50000000E-01  1.80000000E-01  6.50000000E-01  1.54499000E+00
  1.82864000E+00  5.73840000E-01  0.00000000E+00  1.70000000E+00  5.45000000E+00
  1.00000000E+01  1.65000000E+00  2.55000000E+00  3.50000000E+00  2.40000000E+00
  4.80000000E+00  4.15000000E+00  6.80000000E+00  4.46730000E-01  3.84150000E-01
  7.51420000E-01  1.39430000E-01  4.36200000E-02  3.83800000E-02  0.00000000E+00
  1.60000000E-01  1.17500000E+00  1.44000000E-01  1.66666667E-01  1.77488000E+00
  6.46810000E-01  1.52590000E-01  2.94070000E-01  9.28870000E-01  9.74250000E-01
  3.16418000E-01  6.30096000E-01  2.41150000E-01  1.62591000E-01  9.75200000E-02
  4.32520000E-02  1.18653000E+00  1.82910000E+00  6.65630000E-01  3.00000000E+00
  1.35000000E+00  1.50000000E+00  1.02514000E+00  1.74876000E+00  5.81500000E-01
  3.51480000E-01  1.85000000E+00  6.65000000E+00  2.17500000E+00  3.00000000E-01
  1.45000000E+00  1.17804000E+00  9.21020000E-02  9.62830000E-01  1.20000000E+00
  1.85181000E-01  1.25653100E+00  3.54858000E-01  1.22506000E+00  1.63459000E+00
  9.37470000E-01  3.10330000E-01  4.00000000E+00  0.00000000E+00  1.00000000E+00
  1.10000000E+00  1.05000000E+01
%FLAG DIHEDRAL_PERIODICITY
%FORMAT(5E16.8)
  3.00000000E+00  3.00000000E+00  1.00000000E+00  2.00000000E+00  3.00000000E+00
  4.00000000E+00  1.00000000E+00  3.00000000E+00  2.00000000E+00  3.00000000E+00
  1.00000000E+00  2.00000000E+00  3.00000000E+00  2.00000000E+00  1.00000000E+00
  2.00000000E+00  3.00000000E+00  2.00000000E+00  2.00000000E+00  2.00000000E+00
  2.00000000E+00  2.00000000E+00  2.00000000E+00  2.00000000E+00  2.00000000E+00
  2.00000000E+00  2.00000000E+00  2.00000000E+00  1.00000000E+00  2.00000000E+00
  3.00000000E+00  4.00000000E+00  5.00000000E+00  6.00000000E+00  3.00000000E+00
  3.00000000E+00  2.00000000E+00  3.00000000E+00  3.00000000E+00  1.00000000E+00
  2.00000000E+00  3.00000000E+00  3.00000000E+00  1.00000000E+00  2.00000000E+00
  1.00000000E+00  2.00000000E+00  3.00000000E+00  4.00000000E+00  5.00000000E+00
  6.00000000E+00  1.00000000E+00  2.00000000E+00  3.00000000E+00  2.00000000E+00
  2.00000000E+00  2.00000000E+00  1.00000000E+00  2.00000000E+00  3.00000000E+00
  4.00000000E+00  2.00000000E+00  2.00000000E+00  2.00000000E+00  3.00000000E+00
  2.00000000E+00  1.00000000E+00  2.00000000E+00  3.00000000E+00  2.00000000E+00
  1.00000000E+00  2.00000000E+00  3.00000000E+00  1.00000000E+00  2.00000000E+00
  3.00000000E+00  4.00000000E+00  2.00000000E+00  2.00000000E+00  2.00000000E+00
  2.00000000E+00  2.00000000E+00
%FLAG DIHEDRAL_PHASE
%FORMAT(5E16.8)
  0.00000000E+00  0.00000000E+00  4.11516700E-01  3.90339511E+00  3.16964180E+00
  3.75561907E+00  0.00000000E+00  0.00000000E+00  3.14159400E+00  0.00000000E+00
  3.14159400E+00  3.14159400E+00  0.00000000E+00  0.00000000E+00  7.08469590E-01
  6.22250811E+00  3.12423320E+00  0.00000000E+00  3.14159400E+00  3.14159400E+00
  3.14159400E+00  3.14159400E+00  3.14159400E+00  3.14159400E+00  3.14159400E+00
  3.14159400E+00  3.14159400E+00  3.14159400E+00  2.90541594E+00  4.29031785E+00
  6.00313235E+00  4.81763440E+00  5.32784672E+00  2.46419652E+00  0.00000000E+00
  0.00000000E+00  0.00000000E+00  0.00000000E+00  0.00000000E+00  3.59396957E+00
  2.44056824E+00  2.83610365E+00  6.25323814E+00  3.06008709E-02  6.12404881E+00
  1.78135361E+00  6.27782984E+00  5.23372107E+00  5.59919317E-01  5.29805393E+00
  3.40234630E-01  7.66639693E-01  6.12408721E+00  3.06161425E+00  3.14159400E+00
  3.14159400E+00  3.14159400E+00  2.61552187E+00  2.92601084E-01  3.13020398E+00
  2.79280725E-01  3.14159400E+00  3.14159400E+00  3.14159400E+00  0.00000000E+00
  3.14159400E+00  3.33317067E+00  5.15976777E+00  6.07541257E+00  0.00000000E+00
  5.54929070E-01  6.14285649E+00  6.23514744E+00  2.56544660E+00  2.87571043E-01
  3.24417403E+00  5.61280675E-01  3.14159400E+00  3.14159400E+00  3.14159400E+00
  3.14159400E+00  3.14159400E+00
%FLAG SCEE_SCALE_FACTOR
%FORMAT(5E16.8)
  1.20000000E+00  1.20000000E+00  1.20000000E+00  1.20000000E+00  1.20000000E+00
  1.20000000E+00  1.20000000E+00  1.20000000E+00  1.20000000E+00  1.20000000E+00
  1.20000000E+00  1.20000000E+00  1.20000000E+00  1.20000000E+00  1.20000000E+00
  1.20000000E+00  1.20000000E+00  1.20000000E+00  1.20000000E+00  1.20000000E+00
  1.20000000E+00  1.20000000E+00  1.20000000E+00  1.20000000E+00  1.20000000E+00
  1.20000000E+00  1.20000000E+00  1.20000000E+00  1.20000000E+00  1.20000000E+00
  1.20000000E+00  1.20000000E+00  1.20000000E+00  1.20000000E+00  1.20000000E+00
  1.20000000E+00  1.20000000E+00  1.20000000E+00  1.20000000E+00  1.20000000E+00
  1.20000000E+00  1.20000000E+00  1.20000000E+00  1.20000000E+00  1.20000000E+00
  1.20000000E+00  1.20000000E+00  1.20000000E+00  1.20000000E+00  1.20000000E+00
  1.20000000E+00  1.20000000E+00  1.20000000E+00  1.20000000E+00  1.20000000E+00
  1.20000000E+00  1.20000000E+00  1.20000000E+00  1.20000000E+00  1.20000000E+00
  1.20000000E+00  1.20000000E+00  1.20000000E+00  1.20000000E+00  1.20000000E+00
  1.20000000E+00  1.20000000E+00  1.20000000E+00  1.20000000E+00  1.20000000E+00
  1.20000000E+00  1.20000000E+00  1.20000000E+00  1.20000000E+00  1.20000000E+00
  1.20000000E+00  1.20000000E+00  1.20000000E+00  0.00000000E+00  0.00000000E+00
  0.00000000E+00  0.00000000E+00
%FLAG SCNB_SCALE_FACTOR
%FORMAT(5E16.8)
  2.00000000E+00  2.00000000E+00  2.00000000E+00  2.00000000E+00  2.00000000E+00
  2.00000000E+00  2.00000000E+00  2.00000000E+00  2.00000000E+00  2.00000000E+00
  2.00000000E+00  2.00000000E+00  2.00000000E+00  2.00000000E+00  2.00000000E+00
  2.00000000E+00  2.00000000E+00  2.00000000E+00  2.00000000E+00  2.00000000E+00
  2.00000000E+00  2.00000000E+00  2.00000000E+00  2.00000000E+00  2.00000000E+00
  2.00000000E+00  2.00000000E+00  2.00000000E+00  2.00000000E+00  2.00000000E+00
  2.00000000E+00  2.00000000E+00  2.00000000E+00  2.00000000E+00  2.00000000E+00
  2.00000000E+00  2.00000000E+00  2.00000000E+00  2.00000000E+00  2.00000000E+00
  2.00000000E+00  2.00000000E+00  2.00000000E+00  2.00000000E+00  2.00000000E+00
  2.00000000E+00  2.00000000E+00  2.00000000E+00  2.00000000E+00  2.00000000E+00
  2.00000000E+00  2.00000000E+00  2.00000000E+00  2.00000000E+00  2.00000000E+00
  2.00000000E+00  2.00000000E+00  2.00000000E+00  2.00000000E+00  2.00000000E+00
  2.00000000E+00  2.00000000E+00  2.00000000E+00  2.00000000E+00  2.00000000E+00
  2.00000000E+00  2.00000000E+00  2.00000000E+00  2.00000000E+00  2.00000000E+00
  2.00000000E+00  2.00000000E+00  2.00000000E+00  2.00000000E+00  2.00000000E+00
  2.00000000E+00  2.00000000E+00  2.00000000E+00  0.00000000E+00  0.00000000E+00
  0.00000000E+00  0.00000000E+00
%FLAG SOLTY
%FORMAT(5E16.8)
  0.00000000E+00  0.00000000E+00  0.00000000E+00  0.00000000E+00  0.00000000E+00
  0.00000000E+00  0.00000000E+00  0.00000000E+00  0.00000000E+00  0.00000000E+00
  0.00000000E+00  0.00000000E+00  0.00000000E+00  0.00000000E+00  0.00000000E+00
  0.00000000E+00  0.00000000E+00  0.00000000E+00  0.00000000E+00  0.00000000E+00
  0.00000000E+00  0.00000000E+00  0.00000000E+00  0.00000000E+00  0.00000000E+00
  0.00000000E+00  0.00000000E+00  0.00000000E+00  0.00000000E+00  0.00000000E+00
%FLAG LENNARD_JONES_ACOEF
%FORMAT(5E16.8)
  0.00000000E+00  0.00000000E+00  5.81803229E+05  0.00000000E+00  7.91544157E+05
  1.04308023E+06  0.00000000E+00  4.66922514E+04  6.78771368E+04  3.25969625E+03
  0.00000000E+00  4.58874091E+05  6.28541240E+05  3.63097246E+04  3.61397723E+05
  0.00000000E+00  3.15360051E+04  4.68930885E+04  2.09814978E+03  2.44050579E+04
  1.32801250E+03  0.00000000E+00  7.44975864E+05  9.95480466E+05  6.20665997E+04
  5.89818288E+05  4.24594555E+04  9.44293233E+05  0.00000000E+00  7.01803794E+05
  9.24822270E+05  6.01816484E+04  5.57281136E+05  4.15766412E+04  8.82619071E+05
  8.19971662E+05  0.00000000E+00  4.09427581E+04  5.98885646E+04  2.82099197E+03
  3.17965283E+04  1.80748014E+03  5.46147253E+04  5.30987710E+04  2.43828624E+03
  0.00000000E+00  4.71003287E+05  6.47841731E+05  3.69471530E+04  3.70622491E+05
  2.47595516E+04  6.06829342E+05  5.74393458E+05  3.23283631E+04  3.79876399E+05
  0.00000000E+00  1.40467023E+03  2.56678134E+03  5.94667300E+01  1.03954408E+03
  3.20009193E+01  2.12601181E+03  2.27577561E+03  4.90239937E+01  1.02595236E+03
  1.39982777E-01  0.00000000E+00  6.82786631E+04  9.71708117E+04  4.98586848E+03
  5.33379252E+04  3.25969625E+03  8.96776989E+04  8.61541883E+04  4.33325458E+03
  5.44261042E+04  1.07193646E+02  7.51607703E+03  0.00000000E+00  1.98683736E+06
  2.54188684E+06  1.81087383E+05  1.58759528E+06  1.27716552E+05  2.45746558E+06
  2.25370349E+06  1.60682053E+05  1.64263766E+06  8.41065839E+03  2.54238516E+05
  6.02589390E+06  0.00000000E+00  4.96707306E+04  7.18621074E+04  3.50301067E+03
  3.86654993E+04  2.26273716E+03  6.58473870E+04  6.37148278E+04  3.03448006E+03
  3.93690817E+04  6.63368273E+01  5.34045360E+03  1.90880272E+05  3.76169105E+03
  0.00000000E+00  6.00750218E+04  8.59947003E+04  4.33325458E+03  4.68711055E+04
  2.82099197E+03  7.91627154E+04  7.62451550E+04  3.76169105E+03  4.77908183E+04
  8.90987508E+01  6.55825601E+03  2.26202022E+05  4.64559155E+03  5.71629601E+03
%FLAG LENNARD_JONES_BCOEF
%FORMAT(5E16.8)
  0.00000000E+00  0.00000000E+00  6.99746810E+02  0.00000000E+00  6.93079947E+02
  6.75612247E+02  0.00000000E+00  1.03606917E+02  1.06076943E+02  1.43076527E+01
  0.00000000E+00  5.89183300E+02  5.85549272E+02  8.66220817E+01  4.95732238E+02
  0.00000000E+00  8.51470647E+01  8.81685417E+01  1.14788417E+01  7.10161395E+01
  9.13231543E+00  0.00000000E+00  7.50714425E+02  7.36907417E+02  1.13252061E+02
  6.33305958E+02  9.36708259E+01  8.01323529E+02  0.00000000E+00  6.14502845E+02
  5.99015525E+02  9.40505980E+01  5.19163331E+02  7.81725398E+01  6.53361429E+02
  5.31102864E+02  0.00000000E+00  9.59185913E+01  9.85097219E+01  1.31591746E+01
  8.01410250E+01  1.05333009E+01  1.05031585E+02  8.73413012E+01  1.20953369E+01
  0.00000000E+00  6.29300710E+02  6.26720080E+02  9.21192136E+01  5.29252520E+02
  7.54103785E+01  6.77220874E+02  5.55666448E+02  8.51921330E+01  5.64885984E+02
  0.00000000E+00  1.79702257E+01  2.06278363E+01  1.93248820E+00  1.46567808E+01
  1.41762397E+00  2.09604198E+01  1.82891803E+01  1.73473071E+00  1.53505284E+01
  9.37598976E-02  0.00000000E+00  1.25287818E+02  1.26919150E+02  1.76949863E+01
  1.04986921E+02  1.43076527E+01  1.36131731E+02  1.12529845E+02  1.63092814E+01
  1.11805549E+02  2.59456373E+00  2.17257828E+01  0.00000000E+00  1.27682121E+03
  1.22636552E+03  2.01468199E+02  1.08210555E+03  1.69194406E+02  1.34630496E+03
  1.08732781E+03  1.87626421E+02  1.16041466E+03  4.34187588E+01  2.38716853E+02
  2.19561270E+03  0.00000000E+00  1.05648788E+02  1.07908863E+02  1.46638650E+01
  8.83744760E+01  1.17854122E+01  1.15327881E+02  9.56748258E+01  1.34932874E+01
  9.40124296E+01  2.01792524E+00  1.81057616E+01  2.04498832E+02  1.50233639E+01
  0.00000000E+00  1.16187983E+02  1.18043746E+02  1.63092814E+01  9.73010751E+01
  1.31591746E+01  1.26451907E+02  1.04660679E+02  1.50233639E+01  1.03580945E+02
  2.33864085E+00  2.00642027E+01  2.22617115E+02  1.66953734E+01  1.85196588E+01
%FLAG BONDS_INC_HYDROGEN
%FORMAT(10I8)
    1185    1182       4    1188    1182       4    1194    1191       6    1203
    1200       8    1212    1209      11    1227    1224      16    1230    1224
      16    1239    1236      19    1251    1248      24    1257    1254      26
    1260    1254      26    1089    1086       4    1092    1086       4    1098
    1095       6    1107    1104       8    1116    1113      11    1131    1128
      16    1134    1128      16    1143    1140      19    1155    1152      24
    1161    1158      26    1164    1158      26     990     987       4     993
     987       4     999     996       6    1008    1005       8    1017    1014
      30    1035    1032      35    1044    1041      16    1047    1041      16
    1059    1056      24    1065    1062      26    1068    1062      26     894
     891       4     897     891       4     903     900       6     912     909
       8     921     918      11     936     933      16     939     933      16
     948     945      19     960     957      24     966     963      26     969
     963      26     795     792       4     798     792       4     804     801
       6     813     810       8     822     819      30     840     837      35
     849     846      16     852     846      16     864     861      24     870
     867      26     873     867      26     699     696       4     702     696
       4     708     705       6     717     714       8     726     723      11
     741     738      16     744     738      16     753     750      19     765
     762      24     771     768      26     774     768      26     603     600
       4     606     600       4     612     609       6     621     618       8
     630     627      11     645     642      16     648     642      16     657
     654      19     669     666      24     675     672      26     678     672
      26     504     501       4     507     501       4     513     510       6
     522     519       8     531     528      30     549     546      35     558
     555      16     561     555      16     573     570      24     579     576
      26     582     576      26     405     402       4     408     402       4
     414     411       6     423     420       8     432     429      30     450
     447      35     459     456      16     462     456      16     474     471
      24     480     477      26     483     477      26     309     306       4
     312     306       4     318     315       6     327     324       8     336
     333      11     351     348      16     354     348      16     363     360
      19     375     372      24     381     378      26     384     378      26
     210     207       4     213     207       4     219     216       6     228
     225       8     237     234      30     255     252      35     264     261
      16     267     261      16     279     276      24     285     282      26
     288     282      26     114     111       4     117     111       4     123
     120       6     132     129       8     141     138      11     156     153
      16     159     153      16     168     165      19     180     177      24
     186     183      26     189     183      26      15      12       4      18
      12       4      24      21       6      33      30       8      42      39
      30      60      57      35      69      66      16      72      66      16
      84      81      24      90      87      26      93      87      26    1281
    1278      37    1284    1278      37    1290    1287       6    1299    1296
       8    1308    1305      40    1314    1311      42    1326    1323      35
    1338    1335       6    1344    1341       6    1350    1347      27    1371
    1368      37    1374    1368      37    1380    1377       6    1389    1386
       8    1398    1395      40    1404    1401      42    1416    1413      35
    1428    1425       6    1434    1431       6    1440    1437      27    1461
    1458      37    1464    1458      37    1470    1467       6    1479    1476
       8    1488    1485      48    1494    1491      50    1503    1500      16
    1506    1500      16    1521    1518       6    1527    1524       6    1533
    1530      27    1554    1551      37    1557    1551      37    1563    1560
       6    1572    1569       8    1581    1578      40    1587    1584      42
    1599    1596      35    1611    1608       6    1617    1614       6    1623
    1620      27    1644    1641      37    1647    1641      37    1653    1650
       6    1662    1659       8    1671    1668      48    1677    1674      50
    1686    1683      16    1689    1683      16    1704    1701       6    1710
    1707       6    1716    1713      27    1737    1734      37    1740    1734
      37    1746    1743       6    1755    1752       8    1764    1761      40
    1770    1767      42    1782    1779      35    1794    1791       6    1800
    1797       6    1806    1803      27    1827    1824      37    1830    1824
      37    1836    1833       6    1845    1842       8    1854    1851      40
    1860    1857      42    1872    1869      35    1884    1881       6    1890
    1887       6    1896    1893      27    1917    1914      37    1920    1914
      37    1926    1923       6    1935    1932       8    1944    1941      48
    1950    1947      50    1959    1956      16    1962    1956      16    1977
    1974       6    1983    1980       6    1989    1986      27    2010    2007
      37    2013    2007      37    2019    2016       6    2028    2025       8
    2037    2034      48    2043    2040      50    2052    2049      16    2055
    2049      16    2070    2067       6    2076    2073       6    2082    2079
      27    2103    2100      37    2106    2100      37    2112    2109       6
    2121    2118       8    2130    2127      40    2136    2133      42    2148
    2145      35    2160    2157       6    2166    2163       6    2172    2169
      27    2193    2190      37    2196    2190      37    2202    2199       6
    2211    2208       8    2220    2217      48    2226    2223      50    2235
    2232      16    2238    2232      16    2253    2250       6    2259    2256
       6    2265    2262      27    2286    2283      37    2289    2283      37
    2295    2292       6    2304    2301       8    2313    2310      40    2319
    2316      42    2331    2328      35    2343    2340       6    2349    2346
       6    2355    2352      27    2376    2373      37    2379    2373      37
    2385    2382       6    2394    2391       8    2403    2400      48    2409
    2406      50    2418    2415      16    2421    2415      16    2436    2433
       6    2442    2439       6    2448    2445      27
%FLAG BONDS_WITHOUT_HYDROGEN
%FORMAT(10I8)
    1173    1170       1    1176    1170       1    1179    1170       2    1182
    1179       3    1191    1182       5    1197    1191       7    1200    1197
       7    1206    1200       9    1209    1206      10    1215    1209      12
    1218    1215      13    1221    1218      14    1224    1221      15    1233
    1221      17    1236    1233      18    1242    1236      18    1245    1206
      20    1245    1218      21    1245    1242      22    1248    1191      23
    1254    1200      25    1254    1248      23    1263    1248      28    1077
    1074       1    1080    1074       1    1083    1074       2    1086    1083
       3    1095    1086       5    1101    1095       7    1104    1101       7
    1110    1104       9    1113    1110      10    1119    1113      12    1122
    1119      13    1125    1122      14    1128    1125      15    1137    1125
      17    1140    1137      18    1146    1140      18    1149    1110      20
    1149    1122      21    1149    1146      22    1152    1095      23    1158
    1104      25    1158    1152      23    1167    1152      28    1167    1170
       2     978     975       1     981     975       1     984     975       2
     987     984       3     996     987       5    1002     996       7    1005
    1002       7    1011    1005       9    1014    1011      29    1020    1014
      31    1023    1020      13    1026    1023      32    1029    1026      33
    1032    1026      34    1038    1032      36    1041    1038      15    1050
    1038      17    1053    1011      20    1053    1023      21    1053    1050
      22    1056     996      23    1062    1005      25    1062    1056      23
    1071    1056      28    1071    1074       2     882     879       1     885
     879       1     888     879       2     891     888       3     900     891
       5     906     900       7     909     906       7     915     909       9
     918     915      10     924     918      12     927     924      13     930
     927      14     933     930      15     942     930      17     945     942
      18     951     945      18     954     915      20     954     927      21
     954     951      22     957     900      23     963     909      25     963
     957      23     972     957      28     972     975       2     783     780
       1     786     780       1     789     780       2     792     789       3
     801     792       5     807     801       7     810     807       7     816
     810       9     819     816      29     825     819      31     828     825
      13     831     828      32     834     831      33     837     831      34
     843     837      36     846     843      15     855     843      17     858
     816      20     858     828      21     858     855      22     861     801
      23     867     810      25     867     861      23     876     861      28
     876     879       2     687     684       1     690     684       1     693
     684       2     696     693       3     705     696       5     711     705
       7     714     711       7     720     714       9     723     720      10
     729     723      12     732     729      13     735     732      14     738
     735      15     747     735      17     750     747      18     756     750
      18     759     720      20     759     732      21     759     756      22
     762     705      23     768     714      25     768     762      23     777
     762      28     777     780       2     591     588       1     594     588
       1     597     588       2     600     597       3     609     600       5
     615     609       7     618     615       7     624     618       9     627
     624      10     633     627      12     636     633      13     639     636
      14     642     639      15     651     639      17     654     651      18
     660     654      18     663     624      20     663     636      21     663
     660      22     666     609      23     672     618      25     672     666
      23     681     666      28     681     684       2     492     489       1
     495     489       1     498     489       2     501     498       3     510
     501       5     516     510       7     519     516       7     525     519
       9     528     525      29     534     528      31     537     534      13
     540     537      32     543     540      33     546     540      34     552
     546      36     555     552      15     564     552      17     567     525
      20     567     537      21     567     564      22     570     510      23
     576     519      25     576     570      23     585     570      28     585
     588       2     393     390       1     396     390       1     399     390
       2     402     399       3     411     402       5     417     411       7
     420     417       7     426     420       9     429     426      29     435
     429      31     438     435      13     441     438      32     444     441
      33     447     441      34     453     447      36     456     453      15
     465     453      17     468     426      20     468     438      21     468
     465      22     471     411      23     477     420      25     477     471
      23     486     471      28     486     489       2     297     294       1
     300     294       1     303     294       2     306     303       3     315
     306       5     321     315       7     324     321       7     330     324
       9     333     330      10     339     333      12     342     339      13
     345     342      14     348     345      15     357     345      17     360
     357      18     366     360      18     369     330      20     369     342
      21     369     366      22     372     315      23     378     324      25
     378     372      23     387     372      28     387     390       2     198
     195       1     201     195       1     204     195       2     207     204
       3     216     207       5     222     216       7     225     222       7
     231     225       9     234     231      29     240     234      31     243
     240      13     246     243      32     249     246      33     252     246
      34     258     252      36     261     258      15     270     258      17
     273     231      20     273     243      21     273     270      22     276
     216      23     282     225      25     282     276      23     291     276
      28     291     294       2     102      99       1     105      99       1
     108      99       2     111     108       3     120     111       5     126
     120       7     129     126       7     135     129       9     138     135
      10     144     138      12     147     144      13     150     147      14
     153     150      15     162     150      17     165     162      18     171
     165      18     174     135      20     174     147      21     174     171
      22     177     120      23     183     129      25     183     177      23
     192     177      28     192     195       2       3       0       1       6
       0       1       9       0       2      12       9       3      21      12
       5      27      21       7      30      27       7      36      30       9
      39      36      29      45      39      31      48      45      13      51
      48      32      54      51      33      57      51      34      63      57
      36      66      63      15      75      63      17      78      36      20
      78      48      21      78      75      22      81      21      23      87
      30      25      87      81      23      96      81      28      96      99
       2    1269    1266       1    1272    1266       1    1275    1266       2
    1278    1275      46    1287    1278      38    1293    1287       7    1296
    1293       7    1302    1296       9    1305    1302      39    1311    1305
      41    1317    1311      43    1320    1317      33    1323    1317      34
    1329    1302      44    1329    1323      34    1332    1329      33    1335
    1287      25    1341    1296      25    1341    1335      25    1347    1341
      45    1353    1335       7    1353    1356       2    1359    1356       1
    1362    1356       1    1365    1356       2    1368    1365      46    1377
    1368      38    1383    1377       7    1386    1383       7    1392    1386
       9    1395    1392      39    1401    1395      41    1407    1401      43
    1410    1407      33    1413    1407      34    1419    1392      44    1419
    1413      34    1422    1419      33    1425    1377      25    1431    1386
      25    1431    1425      25    1437    1431      45    1443    1425       7
    1443    1446       2    1449    1446       1    1452    1446       1    1455
    1446       2    1458    1455      46    1467    1458      38    1473    1467
       7    1476    1473       7    1482    1476       9    1485    1482      47
    1491    1485      49    1497    1491      51    1500    1497      15    1509
    1497      17    1512    1482      44    1512    1509      52    1515    1512
      33    1518    1467      25    1524    1476      25    1524    1518      25
    1530    1524      45    1536    1518       7    1536    1539       2    1542
    1539       1    1545    1539       1    1548    1539       2    1551    1548
      46    1560    1551      38    1566    1560       7    1569    1566       7
    1575    1569       9    1578    1575      39    1584    1578      41    1590
    1584      43    1593    1590      33    1596    1590      34    1602    1575
      44    1602    1596      34    1605    1602      33    1608    1560      25
    1614    1569      25    1614    1608      25    1620    1614      45    1626
    1608       7    1626    1629       2    1632    1629       1    1635    1629
       1    1638    1629       2    1641    1638      46    1650    1641      38
    1656    1650       7    1659    1656       7    1665    1659       9    1668
    1665      47    1674    1668      49    1680    1674      51    1683    1680
      15    1692    1680      17    1695    1665      44    1695    1692      52
    1698    1695      33    1701    1650      25    1707    1659      25    1707
    1701      25    1713    1707      45    1719    1701       7    1719    1722
       2    1725    1722       1    1728    1722       1    1731    1722       2
    1734    1731      46    1743    1734      38    1749    1743       7    1752
    1749       7    1758    1752       9    1761    1758      39    1767    1761
      41    1773    1767      43    1776    1773      33    1779    1773      34
    1785    1758      44    1785    1779      34    1788    1785      33    1791
    1743      25    1797    1752      25    1797    1791      25    1803    1797
      45    1809    1791       7    1809    1812       2    1815    1812       1
    1818    1812       1    1821    1812       2    1824    1821      46    1833
    1824      38    1839    1833       7    1842    1839       7    1848    1842
       9    1851    1848      39    1857    1851      41    1863    1857      43
    1866    1863      33    1869    1863      34    1875    1848      44    1875
    1869      34    1878    1875      33    1881    1833      25    1887    1842
      25    1887    1881      25    1893    1887      45    1899    1881       7
    1899    1902       2    1905    1902       1    1908    1902       1    1911
    1902       2    1914    1911      46    1923    1914      38    1929    1923
       7    1932    1929       7    1938    1932       9    1941    1938      47
    1947    1941      49    1953    1947      51    1956    1953      15    1965
    1953      17    1968    1938      44    1968    1965      52    1971    1968
      33    1974    1923      25    1980    1932      25    1980    1974      25
    1986    1980      45    1992    1974       7    1992    1995       2    1998
    1995       1    2001    1995       1    2004    1995       2    2007    2004
      46    2016    2007      38    2022    2016       7    2025    2022       7
    2031    2025       9    2034    2031      47    2040    2034      49    2046
    2040      51    2049    2046      15    2058    2046      17    2061    2031
      44    2061    2058      52    2064    2061      33    2067    2016      25
    2073    2025      25    2073    2067      25    2079    2073      45    2085
    2067       7    2085    2088       2    2091    2088       1    2094    2088
       1    2097    2088       2    2100    2097      46    2109    2100      38
    2115    2109       7    2118    2115       7    2124    2118       9    2127
    2124      39    2133    2127      41    2139    2133      43    2142    2139
      33    2145    2139      34    2151    2124      44    2151    2145      34
    2154    2151      33    2157    2109      25    2163    2118      25    2163
    2157      25    2169    2163      45    2175    2157       7    2175    2178
       2    2181    2178       1    2184    2178       1    2187    2178       2
    2190    2187      46    2199    2190      38    2205    2199       7    2208
    2205       7    2214    2208       9    2217    2214      47    2223    2217
      49    2229    2223      51    2232    2229      15    2241    2229      17
    2244    2214      44    2244    2241      52    2247    2244      33    2250
    2199      25    2256    2208      25    2256    2250      25    2262    2256
      45    2268    2250       7    2268    2271       2    2274    2271       1
    2277    2271       1    2280    2271       2    2283    2280      46    2292
    2283      38    2298    2292       7    2301    2298       7    2307    2301
       9    2310    2307      39    2316    2310      41    2322    2316      43
    2325    2322      33    2328    2322      34    2334    2307      44    2334
    2328      34    2337    2334      33    2340    2292      25    2346    2301
      25    2346    2340      25    2352    2346      45    2358    2340       7
    2358    2361       2    2364    2361       1    2367    2361       1    2370
    2361       2    2373    2370      46    2382    2373      38    2388    2382
       7    2391    2388       7    2397    2391       9    2400    2397      47
    2406    2400      49    2412    2406      51    2415    2412      15    2424
    2412      17    2427    2397      44    2427    2424      52    2430    2427
      33    2433    2382      25    2439    2391      25    2439    2433      25
    2445    2439      45    2451    2433       7
%FLAG ANGLES_INC_HYDROGEN
%FORMAT(10I8)
    1185    1182    1179       4    1188    1182    1179       4    1188    1182
    1185       5    1191    1182    1185       7    1191    1182    1188       7
    1194    1191    1182       8    1197    1191    1194      10    1203    1200
    1197      12    1206    1200    1203      14    1212    1209    1206      16
    1215    1209    1212      18    1227    1224    1221      23    1230    1224
    1221      23    1230    1224    1227      24    1239    1236    1233      28
    1242    1236    1239      28    1248    1191    1194      38    1251    1248
    1191      41    1254    1200    1203      43    1254    1248    1251      41
    1257    1254    1200      46    1257    1254    1248      47    1260    1254
    1200      46    1260    1254    1248      47    1260    1254    1257      48
    1263    1248    1251      51    1089    1086    1083       4    1092    1086
    1083       4    1092    1086    1089       5    1095    1086    1089       7
    1095    1086    1092       7    1098    1095    1086       8    1101    1095
    1098      10    1107    1104    1101      12    1110    1104    1107      14
    1116    1113    1110      16    1119    1113    1116      18    1131    1128
    1125      23    1134    1128    1125      23    1134    1128    1131      24
    1143    1140    1137      28    1146    1140    1143      28    1152    1095
    1098      38    1155    1152    1095      41    1158    1104    1107      43
    1158    1152    1155      41    1161    1158    1104      46    1161    1158
    1152      47    1164    1158    1104      46    1164    1158    1152      47
    1164    1158    1161      48    1167    1152    1155      51     990     987
     984       4     993     987     984       4     993     987     990       5
     996     987     990       7     996     987     993       7     999     996
     987       8    1002     996     999      10    1008    1005    1002      12
    1011    1005    1008      14    1017    1014    1011      54    1020    1014
    1017      56    1035    1032    1026      62    1038    1032    1035      64
    1044    1041    1038      23    1047    1041    1038      23    1047    1041
    1044      24    1056     996     999      38    1059    1056     996      41
    1062    1005    1008      43    1062    1056    1059      41    1065    1062
    1005      46    1065    1062    1056      47    1068    1062    1005      46
    1068    1062    1056      47    1068    1062    1065      48    1071    1056
    1059      51     894     891     888       4     897     891     888       4
     897     891     894       5     900     891     894       7     900     891
     897       7     903     900     891       8     906     900     903      10
     912     909     906      12     915     909     912      14     921     918
     915      16     924     918     921      18     936     933     930      23
     939     933     930      23     939     933     936      24     948     945
     942      28     951     945     948      28     957     900     903      38
     960     957     900      41     963     909     912      43     963     957
     960      41     966     963     909      46     966     963     957      47
     969     963     909      46     969     963     957      47     969     963
     966      48     972     957     960      51     795     792     789       4
     798     792     789       4     798     792     795       5     801     792
     795       7     801     792     798       7     804     801     792       8
     807     801     804      10     813     810     807      12     816     810
     813      14     822     819     816      54     825     819     822      56
     840     837     831      62     843     837     840      64     849     846
     843      23     852     846     843      23     852     846     849      24
     861     801     804      38     864     861     801      41     867     810
     813      43     867     861     864      41     870     867     810      46
     870     867     861      47     873     867     810      46     873     867
     861      47     873     867     870      48     876     861     864      51
     699     696     693       4     702     696     693       4     702     696
     699       5     705     696     699       7     705     696     702       7
     708     705     696       8     711     705     708      10     717     714
     711      12     720     714     717      14     726     723     720      16
     729     723     726      18     741     738     735      23     744     738
     735      23     744     738     741      24     753     750     747      28
     756     750     753      28     762     705     708      38     765     762
     705      41     768     714     717      43     768     762     765      41
     771     768     714      46     771     768     762      47     774     768
     714      46     774     768     762      47     774     768     771      48
     777     762     765      51     603     600     597       4     606     600
     597       4     606     600     603       5     609     600     603       7
     609     600     606       7     612     609     600       8     615     609
     612      10     621     618     615      12     624     618     621      14
     630     627     624      16     633     627     630      18     645     642
     639      23     648     642     639      23     648     642     645      24
     657     654     651      28     660     654     657      28     666     609
     612      38     669     666     609      41     672     618     621      43
     672     666     669      41     675     672     618      46     675     672
     666      47     678     672     618      46     678     672     666      47
     678     672     675      48     681     666     669      51     504     501
     498       4     507     501     498       4     507     501     504       5
     510     501     504       7     510     501     507       7     513     510
     501       8     516     510     513      10     522     519     516      12
     525     519     522      14     531     528     525      54     534     528
     531      56     549     546     540      62     552     546     549      64
     558     555     552      23     561     555     552      23     561     555
     558      24     570     510     513      38     573     570     510      41
     576     519     522      43     576     570     573      41     579     576
     519      46     579     576     570      47     582     576     519      46
     582     576     570      47     582     576     579      48     585     570
     573      51     405     402     399       4     408     402     399       4
     408     402     405       5     411     402     405       7     411     402
     408       7     414     411     402       8     417     411     414      10
     423     420     417      12     426     420     423      14     432     429
     426      54     435     429     432      56     450     447     441      62
     453     447     450      64     459     456     453      23     462     456
     453      23     462     456     459      24     471     411     414      38
     474     471     411      41     477     420     423      43     477     471
     474      41     480     477     420      46     480     477     471      47
     483     477     420      46     483     477     471      47     483     477
     480      48     486     471     474      51     309     306     303       4
     312     306     303       4     312     306     309       5     315     306
     309       7     315     306     312       7     318     315     306       8
     321     315     318      10     327     324     321      12     330     324
     327      14     336     333     330      16     339     333     336      18
     351     348     345      23     354     348     345      23     354     348
     351      24     363     360     357      28     366     360     363      28
     372     315     318      38     375     372     315      41     378     324
     327      43     378     372     375      41     381     378     324      46
     381     378     372      47     384     378     324      46     384     378
     372      47     384     378     381      48     387     372     375      51
     210     207     204       4     213     207     204       4     213     207
     210       5     216     207     210       7     216     207     213       7
     219     216     207       8     222     216     219      10     228     225
     222      12     231     225     228      14     237     234     231      54
     240     234     237      56     255     252     246      62     258     252
     255      64     264     261     258      23     267     261     258      23
     267     261     264      24     276     216     219      38     279     276
     216      41     282     225     228      43     282     276     279      41
     285     282     225      46     285     282     276      47     288     282
     225      46     288     282     276      47     288     282     285      48
     291     276     279      51     114     111     108       4     117     111
     108       4     117     111     114       5     120     111     114       7
     120     111     117       7     123     120     111       8     126     120
     123      10     132     129     126      12     135     129     132      14
     141     138     135      16     144     138     141      18     156     153
     150      23     159     153     150      23     159     153     156      24
     168     165     162      28     171     165     168      28     177     120
     123      38     180     177     120      41     183     129     132      43
     183     177     180      41     186     183     129      46     186     183
     177      47     189     183     129      46     189     183     177      47
     189     183     186      48     192     177     180      51      15      12
       9       4      18      12       9       4      18      12      15       5
      21      12      15       7      21      12      18       7      24      21
      12       8      27      21      24      10      33      30      27      12
      36      30      33      14      42      39      36      54      45      39
      42      56      60      57      51      62      63      57      60      64
      69      66      63      23      72      66      63      23      72      66
      69      24      81      21      24      38      84      81      21      41
      87      30      33      43      87      81      84      41      90      87
      30      46      90      87      81      47      93      87      30      46
      93      87      81      47      93      87      90      48      96      81
      84      51    1281    1278    1275      96    1284    1278    1275      96
    1284    1278    1281      70    1287    1278    1281      71    1287    1278
    1284      71    1290    1287    1278      72    1293    1287    1290      10
    1299    1296    1293      12    1302    1296    1299      14    1308    1305
    1302      75    1311    1305    1308      77    1314    1311    1305      78
    1317    1311    1314      80    1326    1323    1317      62    1329    1323
    1326      62    1335    1287    1290      89    1338    1335    1287      89
    1341    1296    1299      43    1341    1335    1338      89    1344    1341
    1296      89    1344    1341    1335      89    1347    1341    1344      93
    1350    1347    1341      94    1353    1335    1338      10    1371    1368
    1365      96    1374    1368    1365      96    1374    1368    1371      70
    1377    1368    1371      71    1377    1368    1374      71    1380    1377
    1368      72    1383    1377    1380      10    1389    1386    1383      12
    1392    1386    1389      14    1398    1395    1392      75    1401    1395
    1398      77    1404    1401    1395      78    1407    1401    1404      80
    1416    1413    1407      62    1419    1413    1416      62    1425    1377
    1380      89    1428    1425    1377      89    1431    1386    1389      43
    1431    1425    1428      89    1434    1431    1386      89    1434    1431
    1425      89    1437    1431    1434      93    1440    1437    1431      94
    1443    1425    1428      10    1461    1458    1455      96    1464    1458
    1455      96    1464    1458    1461      70    1467    1458    1461      71
    1467    1458    1464      71    1470    1467    1458      72    1473    1467
    1470      10    1479    1476    1473      12    1482    1476    1479      14
    1488    1485    1482      99    1491    1485    1488     101    1494    1491
    1485     102    1497    1491    1494     104    1503    1500    1497      23
    1506    1500    1497      23    1506    1500    1503      24    1518    1467
    1470      89    1521    1518    1467      89    1524    1476    1479      43
    1524    1518    1521      89    1527    1524    1476      89    1527    1524
    1518      89    1530    1524    1527      93    1533    1530    1524      94
    1536    1518    1521      10    1554    1551    1548      96    1557    1551
    1548      96    1557    1551    1554      70    1560    1551    1554      71
    1560    1551    1557      71    1563    1560    1551      72    1566    1560
    1563      10    1572    1569    1566      12    1575    1569    1572      14
    1581    1578    1575      75    1584    1578    1581      77    1587    1584
    1578      78    1590    1584    1587      80    1599    1596    1590      62
    1602    1596    1599      62    1608    1560    1563      89    1611    1608
    1560      89    1614    1569    1572      43    1614    1608    1611      89
    1617    1614    1569      89    1617    1614    1608      89    1620    1614
    1617      93    1623    1620    1614      94    1626    1608    1611      10
    1644    1641    1638      96    1647    1641    1638      96    1647    1641
    1644      70    1650    1641    1644      71    1650    1641    1647      71
    1653    1650    1641      72    1656    1650    1653      10    1662    1659
    1656      12    1665    1659    1662      14    1671    1668    1665      99
    1674    1668    1671     101    1677    1674    1668     102    1680    1674
    1677     104    1686    1683    1680      23    1689    1683    1680      23
    1689    1683    1686      24    1701    1650    1653      89    1704    1701
    1650      89    1707    1659    1662      43    1707    1701    1704      89
    1710    1707    1659      89    1710    1707    1701      89    1713    1707
    1710      93    1716    1713    1707      94    1719    1701    1704      10
    1737    1734    1731      96    1740    1734    1731      96    1740    1734
    1737      70    1743    1734    1737      71    1743    1734    1740      71
    1746    1743    1734      72    1749    1743    1746      10    1755    1752
    1749      12    1758    1752    1755      14    1764    1761    1758      75
    1767    1761    1764      77    1770    1767    1761      78    1773    1767
    1770      80    1782    1779    1773      62    1785    1779    1782      62
    1791    1743    1746      89    1794    1791    1743      89    1797    1752
    1755      43    1797    1791    1794      89    1800    1797    1752      89
    1800    1797    1791      89    1803    1797    1800      93    1806    1803
    1797      94    1809    1791    1794      10    1827    1824    1821      96
    1830    1824    1821      96    1830    1824    1827      70    1833    1824
    1827      71    1833    1824    1830      71    1836    1833    1824      72
    1839    1833    1836      10    1845    1842    1839      12    1848    1842
    1845      14    1854    1851    1848      75    1857    1851    1854      77
    1860    1857    1851      78    1863    1857    1860      80    1872    1869
    1863      62    1875    1869    1872      62    1881    1833    1836      89
    1884    1881    1833      89    1887    1842    1845      43    1887    1881
    1884      89    1890    1887    1842      89    1890    1887    1881      89
    1893    1887    1890      93    1896    1893    1887      94    1899    1881
    1884      10    1917    1914    1911      96    1920    1914    1911      96
    1920    1914    1917      70    1923    1914    1917      71    1923    1914
    1920      71    1926    1923    1914      72    1929    1923    1926      10
    1935    1932    1929      12    1938    1932    1935      14    1944    1941
    1938      99    1947    1941    1944     101    1950    1947    1941     102
    1953    1947    1950     104    1959    1956    1953      23    1962    1956
    1953      23    1962    1956    1959      24    1974    1923    1926      89
    1977    1974    1923      89    1980    1932    1935      43    1980    1974
    1977      89    1983    1980    1932      89    1983    1980    1974      89
    1986    1980    1983      93    1989    1986    1980      94    1992    1974
    1977      10    2010    2007    2004      96    2013    2007    2004      96
    2013    2007    2010      70    2016    2007    2010      71    2016    2007
    2013      71    2019    2016    2007      72    2022    2016    2019      10
    2028    2025    2022      12    2031    2025    2028      14    2037    2034
    2031      99    2040    2034    2037     101    2043    2040    2034     102
    2046    2040    2043     104    2052    2049    2046      23    2055    2049
    2046      23    2055    2049    2052      24    2067    2016    2019      89
    2070    2067    2016      89    2073    2025    2028      43    2073    2067
    2070      89    2076    2073    2025      89    2076    2073    2067      89
    2079    2073    2076      93    2082    2079    2073      94    2085    2067
    2070      10    2103    2100    2097      96    2106    2100    2097      96
    2106    2100    2103      70    2109    2100    2103      71    2109    2100
    2106      71    2112    2109    2100      72    2115    2109    2112      10
    2121    2118    2115      12    2124    2118    2121      14    2130    2127
    2124      75    2133    2127    2130      77    2136    2133    2127      78
    2139    2133    2136      80    2148    2145    2139      62    2151    2145
    2148      62    2157    2109    2112      89    2160    2157    2109      89
    2163    2118    2121      43    2163    2157    2160      89    2166    2163
    2118      89    2166    2163    2157      89    2169    2163    2166      93
    2172    2169    2163      94    2175    2157    2160      10    2193    2190
    2187      96    2196    2190    2187      96    2196    2190    2193      70
    2199    2190    2193      71    2199    2190    2196      71    2202    2199
    2190      72    2205    2199    2202      10    2211    2208    2205      12
    2214    2208    2211      14    2220    2217    2214      99    2223    2217
    2220     101    2226    2223    2217     102    2229    2223    2226     104
    2235    2232    2229      23    2238    2232    2229      23    2238    2232
    2235      24    2250    2199    2202      89    2253    2250    2199      89
    2256    2208    2211      43    2256    2250    2253      89    2259    2256
    2208      89    2259    2256    2250      89    2262    2256    2259      93
    2265    2262    2256      94    2268    2250    2253      10    2286    2283
    2280      96    2289    2283    2280      96    2289    2283    2286      70
    2292    2283    2286      71    2292    2283    2289      71    2295    2292
    2283      72    2298    2292    2295      10    2304    2301    2298      12
    2307    2301    2304      14    2313    2310    2307      75    2316    2310
    2313      77    2319    2316    2310      78    2322    2316    2319      80
    2331    2328    2322      62    2334    2328    2331      62    2340    2292
    2295      89    2343    2340    2292      89    2346    2301    2304      43
    2346    2340    2343      89    2349    2346    2301      89    2349    2346
    2340      89    2352    2346    2349      93    2355    2352    2346      94
    2358    2340    2343      10    2376    2373    2370      96    2379    2373
    2370      96    2379    2373    2376      70    2382    2373    2376      71
    2382    2373    2379      71    2385    2382    2373      72    2388    2382
    2385      10    2394    2391    2388      12    2397    2391    2394      14
    2403    2400    2397      99    2406    2400    2403     101    2409    2406
    2400     102    2412    2406    2409     104    2418    2415    2412      23
    2421    2415    2412      23    2421    2415    2418      24    2433    2382
    2385      89    2436    2433    2382      89    2439    2391    2394      43
    2439    2433    2436      89    2442    2439    2391      89    2442    2439
    2433      89    2445    2439    2442      93    2448    2445    2439      94
    2451    2433    2436      10
%FLAG ANGLES_WITHOUT_HYDROGEN
%FORMAT(10I8)
    1176    1170    1173       1    1179    1170    1173       2    1179    1170
    1176       2    1182    1179    1170       3    1191    1182    1179       6
    1197    1191    1182       9    1200    1197    1191      11    1206    1200
    1197      13    1209    1206    1200      15    1215    1209    1206      17
    1218    1215    1209      19    1218    1245    1206      20    1221    1218
    1215      21    1224    1221    1218      22    1233    1221    1218      25
    1233    1221    1224      26    1236    1233    1221      27    1242    1236
    1233      29    1242    1245    1206      30    1242    1245    1218      31
    1245    1206    1200      32    1245    1206    1209      33    1245    1218
    1215      34    1245    1218    1221      35    1245    1242    1236      36
    1248    1191    1182      37    1248    1191    1197      39    1248    1254
    1200      40    1254    1200    1197      42    1254    1200    1206      44
    1254    1248    1191      45    1263    1248    1191      50    1263    1248
    1254      50    1080    1074    1077       1    1083    1074    1077       2
    1083    1074    1080       2    1086    1083    1074       3    1095    1086
    1083       6    1101    1095    1086       9    1104    1101    1095      11
    1110    1104    1101      13    1113    1110    1104      15    1119    1113
    1110      17    1122    1119    1113      19    1122    1149    1110      20
    1125    1122    1119      21    1128    1125    1122      22    1137    1125
    1122      25    1137    1125    1128      26    1140    1137    1125      27
    1146    1140    1137      29    1146    1149    1110      30    1146    1149
    1122      31    1149    1110    1104      32    1149    1110    1113      33
    1149    1122    1119      34    1149    1122    1125      35    1149    1146
    1140      36    1152    1095    1086      37    1152    1095    1101      39
    1152    1158    1104      40    1152    1167    1170      49    1158    1104
    1101      42    1158    1104    1110      44    1158    1152    1095      45
    1167    1152    1095      50    1167    1152    1158      50    1167    1170
    1173       2    1167    1170    1176       2    1167    1170    1179      52
     981     975     978       1     984     975     978       2     984     975
     981       2     987     984     975       3     996     987     984       6
    1002     996     987       9    1005    1002     996      11    1011    1005
    1002      13    1014    1011    1005      53    1020    1014    1011      55
    1023    1020    1014      57    1023    1053    1011      20    1026    1023
    1020      58    1029    1026    1023      59    1032    1026    1023      60
    1032    1026    1029      61    1038    1032    1026      63    1041    1038
    1032      65    1050    1038    1032      66    1050    1038    1041      26
    1050    1053    1011      30    1050    1053    1023      31    1053    1011
    1005      32    1053    1011    1014      67    1053    1023    1020      34
    1053    1023    1026      68    1053    1050    1038      69    1056     996
     987      37    1056     996    1002      39    1056    1062    1005      40
    1056    1071    1074      49    1062    1005    1002      42    1062    1005
    1011      44    1062    1056     996      45    1071    1056     996      50
    1071    1056    1062      50    1071    1074    1077       2    1071    1074
    1080       2    1071    1074    1083      52     885     879     882       1
     888     879     882       2     888     879     885       2     891     888
     879       3     900     891     888       6     906     900     891       9
     909     906     900      11     915     909     906      13     918     915
     909      15     924     918     915      17     927     924     918      19
     927     954     915      20     930     927     924      21     933     930
     927      22     942     930     927      25     942     930     933      26
     945     942     930      27     951     945     942      29     951     954
     915      30     951     954     927      31     954     915     909      32
     954     915     918      33     954     927     924      34     954     927
     930      35     954     951     945      36     957     900     891      37
     957     900     906      39     957     963     909      40     957     972
     975      49     963     909     906      42     963     909     915      44
     963     957     900      45     972     957     900      50     972     957
     963      50     972     975     978       2     972     975     981       2
     972     975     984      52     786     780     783       1     789     780
     783       2     789     780     786       2     792     789     780       3
     801     792     789       6     807     801     792       9     810     807
     801      11     816     810     807      13     819     816     810      53
     825     819     816      55     828     825     819      57     828     858
     816      20     831     828     825      58     834     831     828      59
     837     831     828      60     837     831     834      61     843     837
     831      63     846     843     837      65     855     843     837      66
     855     843     846      26     855     858     816      30     855     858
     828      31     858     816     810      32     858     816     819      67
     858     828     825      34     858     828     831      68     858     855
     843      69     861     801     792      37     861     801     807      39
     861     867     810      40     861     876     879      49     867     810
     807      42     867     810     816      44     867     861     801      45
     876     861     801      50     876     861     867      50     876     879
     882       2     876     879     885       2     876     879     888      52
     690     684     687       1     693     684     687       2     693     684
     690       2     696     693     684       3     705     696     693       6
     711     705     696       9     714     711     705      11     720     714
     711      13     723     720     714      15     729     723     720      17
     732     729     723      19     732     759     720      20     735     732
     729      21     738     735     732      22     747     735     732      25
     747     735     738      26     750     747     735      27     756     750
     747      29     756     759     720      30     756     759     732      31
     759     720     714      32     759     720     723      33     759     732
     729      34     759     732     735      35     759     756     750      36
     762     705     696      37     762     705     711      39     762     768
     714      40     762     777     780      49     768     714     711      42
     768     714     720      44     768     762     705      45     777     762
     705      50     777     762     768      50     777     780     783       2
     777     780     786       2     777     780     789      52     594     588
     591       1     597     588     591       2     597     588     594       2
     600     597     588       3     609     600     597       6     615     609
     600       9     618     615     609      11     624     618     615      13
     627     624     618      15     633     627     624      17     636     633
     627      19     636     663     624      20     639     636     633      21
     642     639     636      22     651     639     636      25     651     639
     642      26     654     651     639      27     660     654     651      29
     660     663     624      30     660     663     636      31     663     624
     618      32     663     624     627      33     663     636     633      34
     663     636     639      35     663     660     654      36     666     609
     600      37     666     609     615      39     666     672     618      40
     666     681     684      49     672     618     615      42     672     618
     624      44     672     666     609      45     681     666     609      50
     681     666     672      50     681     684     687       2     681     684
     690       2     681     684     693      52     495     489     492       1
     498     489     492       2     498     489     495       2     501     498
     489       3     510     501     498       6     516     510     501       9
     519     516     510      11     525     519     516      13     528     525
     519      53     534     528     525      55     537     534     528      57
     537     567     525      20     540     537     534      58     543     540
     537      59     546     540     537      60     546     540     543      61
     552     546     540      63     555     552     546      65     564     552
     546      66     564     552     555      26     564     567     525      30
     564     567     537      31     567     525     519      32     567     525
     528      67     567     537     534      34     567     537     540      68
     567     564     552      69     570     510     501      37     570     510
     516      39     570     576     519      40     570     585     588      49
     576     519     516      42     576     519     525      44     576     570
     510      45     585     570     510      50     585     570     576      50
     585     588     591       2     585     588     594       2     585     588
     597      52     396     390     393       1     399     390     393       2
     399     390     396       2     402     399     390       3     411     402
     399       6     417     411     402       9     420     417     411      11
     426     420     417      13     429     426     420      53     435     429
     426      55     438     435     429      57     438     468     426      20
     441     438     435      58     444     441     438      59     447     441
     438      60     447     441     444      61     453     447     441      63
     456     453     447      65     465     453     447      66     465     453
     456      26     465     468     426      30     465     468     438      31
     468     426     420      32     468     426     429      67     468     438
     435      34     468     438     441      68     468     465     453      69
     471     411     402      37     471     411     417      39     471     477
     420      40     471     486     489      49     477     420     417      42
     477     420     426      44     477     471     411      45     486     471
     411      50     486     471     477      50     486     489     492       2
     486     489     495       2     486     489     498      52     300     294
     297       1     303     294     297       2     303     294     300       2
     306     303     294       3     315     306     303       6     321     315
     306       9     324     321     315      11     330     324     321      13
     333     330     324      15     339     333     330      17     342     339
     333      19     342     369     330      20     345     342     339      21
     348     345     342      22     357     345     342      25     357     345
     348      26     360     357     345      27     366     360     357      29
     366     369     330      30     366     369     342      31     369     330
     324      32     369     330     333      33     369     342     339      34
     369     342     345      35     369     366     360      36     372     315
     306      37     372     315     321      39     372     378     324      40
     372     387     390      49     378     324     321      42     378     324
     330      44     378     372     315      45     387     372     315      50
     387     372     378      50     387     390     393       2     387     390
     396       2     387     390     399      52     201     195     198       1
     204     195     198       2     204     195     201       2     207     204
     195       3     216     207     204       6     222     216     207       9
     225     222     216      11     231     225     222      13     234     231
     225      53     240     234     231      55     243     240     234      57
     243     273     231      20     246     243     240      58     249     246
     243      59     252     246     243      60     252     246     249      61
     258     252     246      63     261     258     252      65     270     258
     252      66     270     258     261      26     270     273     231      30
     270     273     243      31     273     231     225      32     273     231
     234      67     273     243     240      34     273     243     246      68
     273     270     258      69     276     216     207      37     276     216
     222      39     276     282     225      40     276     291     294      49
     282     225     222      42     282     225     231      44     282     276
     216      45     291     276     216      50     291     276     282      50
     291     294     297       2     291     294     300       2     291     294
     303      52     105      99     102       1     108      99     102       2
     108      99     105       2     111     108      99       3     120     111
     108       6     126     120     111       9     129     126     120      11
     135     129     126      13     138     135     129      15     144     138
     135      17     147     144     138      19     147     174     135      20
     150     147     144      21     153     150     147      22     162     150
     147      25     162     150     153      26     165     162     150      27
     171     165     162      29     171     174     135      30     171     174
     147      31     174     135     129      32     174     135     138      33
     174     147     144      34     174     147     150      35     174     171
     165      36     177     120     111      37     177     120     126      39
     177     183     129      40     177     192     195      49     183     129
     126      42     183     129     135      44     183     177     120      45
     192     177     120      50     192     177     183      50     192     195
     198       2     192     195     201       2     192     195     204      52
       6       0       3       1       9       0       3       2       9       0
       6       2      12       9       0       3      21      12       9       6
      27      21      12       9      30      27      21      11      36      30
      27      13      39      36      30      53      45      39      36      55
      48      45      39      57      48      78      36      20      51      48
      45      58      54      51      48      59      57      51      48      60
      57      51      54      61      63      57      51      63      66      63
      57      65      75      63      57      66      75      63      66      26
      75      78      36      30      75      78      48      31      78      36
      30      32      78      36      39      67      78      48      45      34
      78      48      51      68      78      75      63      69      81      21
      12      37      81      21      27      39      81      87      30      40
      81      96      99      49      87      30      27      42      87      30
      36      44      87      81      21      45      96      81      21      50
      96      81      87      50      96      99     102       2      96      99
     105       2      96      99     108      52    1272    1266    1269       1
    1275    1266    1269       2    1275    1266    1272       2    1278    1275
    1266      95    1287    1278    1275      97    1293    1287    1278      73
    1296    1293    1287      11    1302    1296    1293      13    1305    1302
    1296      74    1311    1305    1302      76    1317    1311    1305      79
    1320    1317    1311      81    1323    1317    1311      82    1323    1317
    1320      61    1323    1329    1302      83    1329    1302    1296      84
    1329    1302    1305      85    1329    1323    1317      86    1332    1329
    1302      87    1332    1329    1323      61    1335    1287    1278      88
    1335    1287    1293      42    1335    1341    1296      90    1335    1353
    1356      91    1341    1296    1293      42    1341    1296    1302      44
    1341    1335    1287      90    1347    1341    1296      92    1347    1341
    1335      92    1353    1335    1287      42    1353    1335    1341      42
    1353    1356    1359       2    1353    1356    1362       2    1353    1356
    1365      52    1362    1356    1359       1    1365    1356    1359       2
    1365    1356    1362       2    1368    1365    1356      95    1377    1368
    1365      97    1383    1377    1368      73    1386    1383    1377      11
    1392    1386    1383      13    1395    1392    1386      74    1401    1395
    1392      76    1407    1401    1395      79    1410    1407    1401      81
    1413    1407    1401      82    1413    1407    1410      61    1413    1419
    1392      83    1419    1392    1386      84    1419    1392    1395      85
    1419    1413    1407      86    1422    1419    1392      87    1422    1419
    1413      61    1425    1377    1368      88    1425    1377    1383      42
    1425    1431    1386      90    1425    1443    1446      91    1431    1386
    1383      42    1431    1386    1392      44    1431    1425    1377      90
    1437    1431    1386      92    1437    1431    1425      92    1443    1425
    1377      42    1443    1425    1431      42    1443    1446    1449       2
    1443    1446    1452       2    1443    1446    1455      52    1452    1446
    1449       1    1455    1446    1449       2    1455    1446    1452       2
    1458    1455    1446      95    1467    1458    1455      97    1473    1467
    1458      73    1476    1473    1467      11    1482    1476    1473      13
    1485    1482    1476      98    1491    1485    1482     100    1497    1491
    1485     103    1500    1497    1491     105    1509    1497    1491     106
    1509    1497    1500      26    1509    1512    1482     107    1512    1482
    1476      84    1512    1482    1485     108    1512    1509    1497     109
    1515    1512    1482      87    1515    1512    1509     110    1518    1467
    1458      88    1518    1467    1473      42    1518    1524    1476      90
    1518    1536    1539      91    1524    1476    1473      42    1524    1476
    1482      44    1524    1518    1467      90    1530    1524    1476      92
    1530    1524    1518      92    1536    1518    1467      42    1536    1518
    1524      42    1536    1539    1542       2    1536    1539    1545       2
    1536    1539    1548      52    1545    1539    1542       1    1548    1539
    1542       2    1548    1539    1545       2    1551    1548    1539      95
    1560    1551    1548      97    1566    1560    1551      73    1569    1566
    1560      11    1575    1569    1566      13    1578    1575    1569      74
    1584    1578    1575      76    1590    1584    1578      79    1593    1590
    1584      81    1596    1590    1584      82    1596    1590    1593      61
    1596    1602    1575      83    1602    1575    1569      84    1602    1575
    1578      85    1602    1596    1590      86    1605    1602    1575      87
    1605    1602    1596      61    1608    1560    1551      88    1608    1560
    1566      42    1608    1614    1569      90    1608    1626    1629      91
    1614    1569    1566      42    1614    1569    1575      44    1614    1608
    1560      90    1620    1614    1569      92    1620    1614    1608      92
    1626    1608    1560      42    1626    1608    1614      42    1626    1629
    1632       2    1626    1629    1635       2    1626    1629    1638      52
    1635    1629    1632       1    1638    1629    1632       2    1638    1629
    1635       2    1641    1638    1629      95    1650    1641    1638      97
    1656    1650    1641      73    1659    1656    1650      11    1665    1659
    1656      13    1668    1665    1659      98    1674    1668    1665     100
    1680    1674    1668     103    1683    1680    1674     105    1692    1680
    1674     106    1692    1680    1683      26    1692    1695    1665     107
    1695    1665    1659      84    1695    1665    1668     108    1695    1692
    1680     109    1698    1695    1665      87    1698    1695    1692     110
    1701    1650    1641      88    1701    1650    1656      42    1701    1707
    1659      90    1701    1719    1722      91    1707    1659    1656      42
    1707    1659    1665      44    1707    1701    1650      90    1713    1707
    1659      92    1713    1707    1701      92    1719    1701    1650      42
    1719    1701    1707      42    1719    1722    1725       2    1719    1722
    1728       2    1719    1722    1731      52    1728    1722    1725       1
    1731    1722    1725       2    1731    1722    1728       2    1734    1731
    1722      95    1743    1734    1731      97    1749    1743    1734      73
    1752    1749    1743      11    1758    1752    1749      13    1761    1758
    1752      74    1767    1761    1758      76    1773    1767    1761      79
    1776    1773    1767      81    1779    1773    1767      82    1779    1773
    1776      61    1779    1785    1758      83    1785    1758    1752      84
    1785    1758    1761      85    1785    1779    1773      86    1788    1785
    1758      87    1788    1785    1779      61    1791    1743    1734      88
    1791    1743    1749      42    1791    1797    1752      90    1791    1809
    1812      91    1797    1752    1749      42    1797    1752    1758      44
    1797    1791    1743      90    1803    1797    1752      92    1803    1797
    1791      92    1809    1791    1743      42    1809    1791    1797      42
    1809    1812    1815       2    1809    1812    1818       2    1809    1812
    1821      52    1818    1812    1815       1    1821    1812    1815       2
    1821    1812    1818       2    1824    1821    1812      95    1833    1824
    1821      97    1839    1833    1824      73    1842    1839    1833      11
    1848    1842    1839      13    1851    1848    1842      74    1857    1851
    1848      76    1863    1857    1851      79    1866    1863    1857      81
    1869    1863    1857      82    1869    1863    1866      61    1869    1875
    1848      83    1875    1848    1842      84    1875    1848    1851      85
    1875    1869    1863      86    1878    1875    1848      87    1878    1875
    1869      61    1881    1833    1824      88    1881    1833    1839      42
    1881    1887    1842      90    1881    1899    1902      91    1887    1842
    1839      42    1887    1842    1848      44    1887    1881    1833      90
    1893    1887    1842      92    1893    1887    1881      92    1899    1881
    1833      42    1899    1881    1887      42    1899    1902    1905       2
    1899    1902    1908       2    1899    1902    1911      52    1908    1902
    1905       1    1911    1902    1905       2    1911    1902    1908       2
    1914    1911    1902      95    1923    1914    1911      97    1929    1923
    1914      73    1932    1929    1923      11    1938    1932    1929      13
    1941    1938    1932      98    1947    1941    1938     100    1953    1947
    1941     103    1956    1953    1947     105    1965    1953    1947     106
    1965    1953    1956      26    1965    1968    1938     107    1968    1938
    1932      84    1968    1938    1941     108    1968    1965    1953     109
    1971    1968    1938      87    1971    1968    1965     110    1974    1923
    1914      88    1974    1923    1929      42    1974    1980    1932      90
    1974    1992    1995      91    1980    1932    1929      42    1980    1932
    1938      44    1980    1974    1923      90    1986    1980    1932      92
    1986    1980    1974      92    1992    1974    1923      42    1992    1974
    1980      42    1992    1995    1998       2    1992    1995    2001       2
    1992    1995    2004      52    2001    1995    1998       1    2004    1995
    1998       2    2004    1995    2001       2    2007    2004    1995      95
    2016    2007    2004      97    2022    2016    2007      73    2025    2022
    2016      11    2031    2025    2022      13    2034    2031    2025      98
    2040    2034    2031     100    2046    2040    2034     103    2049    2046
    2040     105    2058    2046    2040     106    2058    2046    2049      26
    2058    2061    2031     107    2061    2031    2025      84    2061    2031
    2034     108    2061    2058    2046     109    2064    2061    2031      87
    2064    2061    2058     110    2067    2016    2007      88    2067    2016
    2022      42    2067    2073    2025      90    2067    2085    2088      91
    2073    2025    2022      42    2073    2025    2031      44    2073    2067
    2016      90    2079    2073    2025      92    2079    2073    2067      92
    2085    2067    2016      42    2085    2067    2073      42    2085    2088
    2091       2    2085    2088    2094       2    2085    2088    2097      52
    2094    2088    2091       1    2097    2088    2091       2    2097    2088
    2094       2    2100    2097    2088      95    2109    2100    2097      97
    2115    2109    2100      73    2118    2115    2109      11    2124    2118
    2115      13    2127    2124    2118      74    2133    2127    2124      76
    2139    2133    2127      79    2142    2139    2133      81    2145    2139
    2133      82    2145    2139    2142      61    2145    2151    2124      83
    2151    2124    2118      84    2151    2124    2127      85    2151    2145
    2139      86    2154    2151    2124      87    2154    2151    2145      61
    2157    2109    2100      88    2157    2109    2115      42    2157    2163
    2118      90    2157    2175    2178      91    2163    2118    2115      42
    2163    2118    2124      44    2163    2157    2109      90    2169    2163
    2118      92    2169    2163    2157      92    2175    2157    2109      42
    2175    2157    2163      42    2175    2178    2181       2    2175    2178
    2184       2    2175    2178    2187      52    2184    2178    2181       1
    2187    2178    2181       2    2187    2178    2184       2    2190    2187
    2178      95    2199    2190    2187      97    2205    2199    2190      73
    2208    2205    2199      11    2214    2208    2205      13    2217    2214
    2208      98    2223    2217    2214     100    2229    2223    2217     103
    2232    2229    2223     105    2241    2229    2223     106    2241    2229
    2232      26    2241    2244    2214     107    2244    2214    2208      84
    2244    2214    2217     108    2244    2241    2229     109    2247    2244
    2214      87    2247    2244    2241     110    2250    2199    2190      88
    2250    2199    2205      42    2250    2256    2208      90    2250    2268
    2271      91    2256    2208    2205      42    2256    2208    2214      44
    2256    2250    2199      90    2262    2256    2208      92    2262    2256
    2250      92    2268    2250    2199      42    2268    2250    2256      42
    2268    2271    2274       2    2268    2271    2277       2    2268    2271
    2280      52    2277    2271    2274       1    2280    2271    2274       2
    2280    2271    2277       2    2283    2280    2271      95    2292    2283
    2280      97    2298    2292    2283      73    2301    2298    2292      11
    2307    2301    2298      13    2310    2307    2301      74    2316    2310
    2307      76    2322    2316    2310      79    2325    2322    2316      81
    2328    2322    2316      82    2328    2322    2325      61    2328    2334
    2307      83    2334    2307    2301      84    2334    2307    2310      85
    2334    2328    2322      86    2337    2334    2307      87    2337    2334
    2328      61    2340    2292    2283      88    2340    2292    2298      42
    2340    2346    2301      90    2340    2358    2361      91    2346    2301
    2298      42    2346    2301    2307      44    2346    2340    2292      90
    2352    2346    2301      92    2352    2346    2340      92    2358    2340
    2292      42    2358    2340    2346      42    2358    2361    2364       2
    2358    2361    2367       2    2358    2361    2370      52    2367    2361
    2364       1    2370    2361    2364       2    2370    2361    2367       2
    2373    2370    2361      95    2382    2373    2370      97    2388    2382
    2373      73    2391    2388    2382      11    2397    2391    2388      13
    2400    2397    2391      98    2406    2400    2397     100    2412    2406
    2400     103    2415    2412    2406     105    2424    2412    2406     106
    2424    2412    2415      26    2424    2427    2397     107    2427    2397
    2391      84    2427    2397    2400     108    2427    2424    2412     109
    2430    2427    2397      87    2430    2427    2424     110    2433    2382
    2373      88    2433    2382    2388      42    2433    2439    2391      90
    2439    2391    2388      42    2439    2391    2397      44    2439    2433
    2382      90    2445    2439    2391      92    2445    2439    2433      92
    2451    2433    2382      42    2451    2433    2439      42
%FLAG DIHEDRALS_INC_HYDROGEN
%FORMAT(10I8)
    1185    1182    1179    1170       2    1188    1182    1179    1170       2
    1194    1191    1182    1179       7    1194    1191   -1182    1179       8
    1194    1191    1182    1185       8    1194    1191    1182    1188       8
    1197    1191    1182    1185       7    1197    1191    1182    1188       7
    1200    1197    1191    1194       2    1203    1200    1197    1191       2
    1209    1206    1200    1203      18    1212    1209    1206    1200      19
    1218    1215    1209    1212      21    1227    1224    1221    1218      25
    1230    1224    1221    1218      25    1233    1221    1224    1227      25
    1233    1221    1224    1230      25    1239    1236    1233    1221      28
    1245    1206    1200    1203      18    1245    1206    1209    1212      19
    1245    1242    1236    1239      28    1248    1191    1182    1185       8
    1248    1191    1182    1188       8    1248    1254    1200    1203       8
    1251    1248    1191    1182       8    1251    1248    1191    1194       8
    1251    1248    1191    1197       7    1251    1248   -1191    1197      35
    1251    1248    1254    1200       8    1254    1248    1191    1194       8
    1257    1254    1200    1197       7    1257    1254   -1200    1197      35
    1257    1254    1200    1203       8    1257    1254    1200    1206       8
    1257    1254    1248    1191      36    1257    1254    1248    1251       8
    1260    1254    1200    1197       7    1260    1254   -1200    1197      35
    1260    1254    1200    1203       8    1260    1254    1200    1206       8
    1260    1254    1248    1191      36    1260    1254    1248    1251       8
    1263    1248    1191    1194       7    1263    1248   -1191    1194      35
    1263    1248    1254    1257       7    1263    1248   -1254    1257      35
    1263    1248    1254    1260       7    1263    1248   -1254    1260      35
    1089    1086    1083    1074       2    1092    1086    1083    1074       2
    1098    1095    1086    1083       7    1098    1095   -1086    1083       8
    1098    1095    1086    1089       8    1098    1095    1086    1092       8
    1101    1095    1086    1089       7    1101    1095    1086    1092       7
    1104    1101    1095    1098       2    1107    1104    1101    1095       2
    1113    1110    1104    1107      18    1116    1113    1110    1104      19
    1122    1119    1113    1116      21    1131    1128    1125    1122      25
    1134    1128    1125    1122      25    1137    1125    1128    1131      25
    1137    1125    1128    1134      25    1143    1140    1137    1125      28
    1149    1110    1104    1107      18    1149    1110    1113    1116      19
    1149    1146    1140    1143      28    1152    1095    1086    1089       8
    1152    1095    1086    1092       8    1152    1158    1104    1107       8
    1155    1152    1095    1086       8    1155    1152    1095    1098       8
    1155    1152    1095    1101       7    1155    1152   -1095    1101      35
    1155    1152    1158    1104       8    1155    1152    1167    1170       2
    1158    1152    1095    1098       8    1161    1158    1104    1101       7
    1161    1158   -1104    1101      35    1161    1158    1104    1107       8
    1161    1158    1104    1110       8    1161    1158    1152    1095      36
    1161    1158    1152    1155       8    1164    1158    1104    1101       7
    1164    1158   -1104    1101      35    1164    1158    1104    1107       8
    1164    1158    1104    1110       8    1164    1158    1152    1095      36
    1164    1158    1152    1155       8    1167    1152    1095    1098       7
    1167    1152   -1095    1098      35    1167    1152    1158    1161       7
    1167    1152   -1158    1161      35    1167    1152    1158    1164       7
    1167    1152   -1158    1164      35     990     987     984     975       2
     993     987     984     975       2     999     996     987     984       7
     999     996    -987     984       8     999     996     987     990       8
     999     996     987     993       8    1002     996     987     990       7
    1002     996     987     993       7    1005    1002     996     999       2
    1008    1005    1002     996       2    1014    1011    1005    1008      18
    1017    1014    1011    1005      19    1023    1020    1014    1017      21
    1035    1032    1026    1023      56    1035    1032    1026    1029      56
    1041    1038    1032    1035      57    1044    1041    1038    1032      25
    1047    1041    1038    1032      25    1050    1038    1032    1035      57
    1050    1038    1041    1044      25    1050    1038    1041    1047      25
    1053    1011    1005    1008      18    1053    1011    1014    1017      19
    1056     996     987     990       8    1056     996     987     993       8
    1056    1062    1005    1008       8    1059    1056     996     987       8
    1059    1056     996     999       8    1059    1056     996    1002       7
    1059    1056    -996    1002      35    1059    1056    1062    1005       8
    1059    1056    1071    1074       2    1062    1056     996     999       8
    1065    1062    1005    1002       7    1065    1062   -1005    1002      35
    1065    1062    1005    1008       8    1065    1062    1005    1011       8
    1065    1062    1056     996      36    1065    1062    1056    1059       8
    1068    1062    1005    1002       7    1068    1062   -1005    1002      35
    1068    1062    1005    1008       8    1068    1062    1005    1011       8
    1068    1062    1056     996      36    1068    1062    1056    1059       8
    1071    1056     996     999       7    1071    1056    -996     999      35
    1071    1056    1062    1065       7    1071    1056   -1062    1065      35
    1071    1056    1062    1068       7    1071    1056   -1062    1068      35
     894     891     888     879       2     897     891     888     879       2
     903     900     891     888       7     903     900    -891     888       8
     903     900     891     894       8     903     900     891     897       8
     906     900     891     894       7     906     900     891     897       7
     909     906     900     903       2     912     909     906     900       2
     918     915     909     912      18     921     918     915     909      19
     927     924     918     921      21     936     933     930     927      25
     939     933     930     927      25     942     930     933     936      25
     942     930     933     939      25     948     945     942     930      28
     954     915     909     912      18     954     915     918     921      19
     954     951     945     948      28     957     900     891     894       8
     957     900     891     897       8     957     963     909     912       8
     960     957     900     891       8     960     957     900     903       8
     960     957     900     906       7     960     957    -900     906      35
     960     957     963     909       8     960     957     972     975       2
     963     957     900     903       8     966     963     909     906       7
     966     963    -909     906      35     966     963     909     912       8
     966     963     909     915       8     966     963     957     900      36
     966     963     957     960       8     969     963     909     906       7
     969     963    -909     906      35     969     963     909     912       8
     969     963     909     915       8     969     963     957     900      36
     969     963     957     960       8     972     957     900     903       7
     972     957    -900     903      35     972     957     963     966       7
     972     957    -963     966      35     972     957     963     969       7
     972     957    -963     969      35     795     792     789     780       2
     798     792     789     780       2     804     801     792     789       7
     804     801    -792     789       8     804     801     792     795       8
     804     801     792     798       8     807     801     792     795       7
     807     801     792     798       7     810     807     801     804       2
     813     810     807     801       2     819     816     810     813      18
     822     819     816     810      19     828     825     819     822      21
     840     837     831     828      56     840     837     831     834      56
     846     843     837     840      57     849     846     843     837      25
     852     846     843     837      25     855     843     837     840      57
     855     843     846     849      25     855     843     846     852      25
     858     816     810     813      18     858     816     819     822      19
     861     801     792     795       8     861     801     792     798       8
     861     867     810     813       8     864     861     801     792       8
     864     861     801     804       8     864     861     801     807       7
     864     861    -801     807      35     864     861     867     810       8
     864     861     876     879       2     867     861     801     804       8
     870     867     810     807       7     870     867    -810     807      35
     870     867     810     813       8     870     867     810     816       8
     870     867     861     801      36     870     867     861     864       8
     873     867     810     807       7     873     867    -810     807      35
     873     867     810     813       8     873     867     810     816       8
     873     867     861     801      36     873     867     861     864       8
     876     861     801     804       7     876     861    -801     804      35
     876     861     867     870       7     876     861    -867     870      35
     876     861     867     873       7     876     861    -867     873      35
     699     696     693     684       2     702     696     693     684       2
     708     705     696     693       7     708     705    -696     693       8
     708     705     696     699       8     708     705     696     702       8
     711     705     696     699       7     711     705     696     702       7
     714     711     705     708       2     717     714     711     705       2
     723     720     714     717      18     726     723     720     714      19
     732     729     723     726      21     741     738     735     732      25
     744     738     735     732      25     747     735     738     741      25
     747     735     738     744      25     753     750     747     735      28
     759     720     714     717      18     759     720     723     726      19
     759     756     750     753      28     762     705     696     699       8
     762     705     696     702       8     762     768     714     717       8
     765     762     705     696       8     765     762     705     708       8
     765     762     705     711       7     765     762    -705     711      35
     765     762     768     714       8     765     762     777     780       2
     768     762     705     708       8     771     768     714     711       7
     771     768    -714     711      35     771     768     714     717       8
     771     768     714     720       8     771     768     762     705      36
     771     768     762     765       8     774     768     714     711       7
     774     768    -714     711      35     774     768     714     717       8
     774     768     714     720       8     774     768     762     705      36
     774     768     762     765       8     777     762     705     708       7
     777     762    -705     708      35     777     762     768     771       7
     777     762    -768     771      35     777     762     768     774       7
     777     762    -768     774      35     603     600     597     588       2
     606     600     597     588       2     612     609     600     597       7
     612     609    -600     597       8     612     609     600     603       8
     612     609     600     606       8     615     609     600     603       7
     615     609     600     606       7     618     615     609     612       2
     621     618     615     609       2     627     624     618     621      18
     630     627     624     618      19     636     633     627     630      21
     645     642     639     636      25     648     642     639     636      25
     651     639     642     645      25     651     639     642     648      25
     657     654     651     639      28     663     624     618     621      18
     663     624     627     630      19     663     660     654     657      28
     666     609     600     603       8     666     609     600     606       8
     666     672     618     621       8     669     666     609     600       8
     669     666     609     612       8     669     666     609     615       7
     669     666    -609     615      35     669     666     672     618       8
     669     666     681     684       2     672     666     609     612       8
     675     672     618     615       7     675     672    -618     615      35
     675     672     618     621       8     675     672     618     624       8
     675     672     666     609      36     675     672     666     669       8
     678     672     618     615       7     678     672    -618     615      35
     678     672     618     621       8     678     672     618     624       8
     678     672     666     609      36     678     672     666     669       8
     681     666     609     612       7     681     666    -609     612      35
     681     666     672     675       7     681     666    -672     675      35
     681     666     672     678       7     681     666    -672     678      35
     504     501     498     489       2     507     501     498     489       2
     513     510     501     498       7     513     510    -501     498       8
     513     510     501     504       8     513     510     501     507       8
     516     510     501     504       7     516     510     501     507       7
     519     516     510     513       2     522     519     516     510       2
     528     525     519     522      18     531     528     525     519      19
     537     534     528     531      21     549     546     540     537      56
     549     546     540     543      56     555     552     546     549      57
     558     555     552     546      25     561     555     552     546      25
     564     552     546     549      57     564     552     555     558      25
     564     552     555     561      25     567     525     519     522      18
     567     525     528     531      19     570     510     501     504       8
     570     510     501     507       8     570     576     519     522       8
     573     570     510     501       8     573     570     510     513       8
     573     570     510     516       7     573     570    -510     516      35
     573     570     576     519       8     573     570     585     588       2
     576     570     510     513       8     579     576     519     516       7
     579     576    -519     516      35     579     576     519     522       8
     579     576     519     525       8     579     576     570     510      36
     579     576     570     573       8     582     576     519     516       7
     582     576    -519     516      35     582     576     519     522       8
     582     576     519     525       8     582     576     570     510      36
     582     576     570     573       8     585     570     510     513       7
     585     570    -510     513      35     585     570     576     579       7
     585     570    -576     579      35     585     570     576     582       7
     585     570    -576     582      35     405     402     399     390       2
     408     402     399     390       2     414     411     402     399       7
     414     411    -402     399       8     414     411     402     405       8
     414     411     402     408       8     417     411     402     405       7
     417     411     402     408       7     420     417     411     414       2
     423     420     417     411       2     429     426     420     423      18
     432     429     426     420      19     438     435     429     432      21
     450     447     441     438      56     450     447     441     444      56
     456     453     447     450      57     459     456     453     447      25
     462     456     453     447      25     465     453     447     450      57
     465     453     456     459      25     465     453     456     462      25
     468     426     420     423      18     468     426     429     432      19
     471     411     402     405       8     471     411     402     408       8
     471     477     420     423       8     474     471     411     402       8
     474     471     411     414       8     474     471     411     417       7
     474     471    -411     417      35     474     471     477     420       8
     474     471     486     489       2     477     471     411     414       8
     480     477     420     417       7     480     477    -420     417      35
     480     477     420     423       8     480     477     420     426       8
     480     477     471     411      36     480     477     471     474       8
     483     477     420     417       7     483     477    -420     417      35
     483     477     420     423       8     483     477     420     426       8
     483     477     471     411      36     483     477     471     474       8
     486     471     411     414       7     486     471    -411     414      35
     486     471     477     480       7     486     471    -477     480      35
     486     471     477     483       7     486     471    -477     483      35
     309     306     303     294       2     312     306     303     294       2
     318     315     306     303       7     318     315    -306     303       8
     318     315     306     309       8     318     315     306     312       8
     321     315     306     309       7     321     315     306     312       7
     324     321     315     318       2     327     324     321     315       2
     333     330     324     327      18     336     333     330     324      19
     342     339     333     336      21     351     348     345     342      25
     354     348     345     342      25     357     345     348     351      25
     357     345     348     354      25     363     360     357     345      28
     369     330     324     327      18     369     330     333     336      19
     369     366     360     363      28     372     315     306     309       8
     372     315     306     312       8     372     378     324     327       8
     375     372     315     306       8     375     372     315     318       8
     375     372     315     321       7     375     372    -315     321      35
     375     372     378     324       8     375     372     387     390       2
     378     372     315     318       8     381     378     324     321       7
     381     378    -324     321      35     381     378     324     327       8
     381     378     324     330       8     381     378     372     315      36
     381     378     372     375       8     384     378     324     321       7
     384     378    -324     321      35     384     378     324     327       8
     384     378     324     330       8     384     378     372     315      36
     384     378     372     375       8     387     372     315     318       7
     387     372    -315     318      35     387     372     378     381       7
     387     372    -378     381      35     387     372     378     384       7
     387     372    -378     384      35     210     207     204     195       2
     213     207     204     195       2     219     216     207     204       7
     219     216    -207     204       8     219     216     207     210       8
     219     216     207     213       8     222     216     207     210       7
     222     216     207     213       7     225     222     216     219       2
     228     225     222     216       2     234     231     225     228      18
     237     234     231     225      19     243     240     234     237      21
     255     252     246     243      56     255     252     246     249      56
     261     258     252     255      57     264     261     258     252      25
     267     261     258     252      25     270     258     252     255      57
     270     258     261     264      25     270     258     261     267      25
     273     231     225     228      18     273     231     234     237      19
     276     216     207     210       8     276     216     207     213       8
     276     282     225     228       8     279     276     216     207       8
     279     276     216     219       8     279     276     216     222       7
     279     276    -216     222      35     279     276     282     225       8
     279     276     291     294       2     282     276     216     219       8
     285     282     225     222       7     285     282    -225     222      35
     285     282     225     228       8     285     282     225     231       8
     285     282     276     216      36     285     282     276     279       8
     288     282     225     222       7     288     282    -225     222      35
     288     282     225     228       8     288     282     225     231       8
     288     282     276     216      36     288     282     276     279       8
     291     276     216     219       7     291     276    -216     219      35
     291     276     282     285       7     291     276    -282     285      35
     291     276     282     288       7     291     276    -282     288      35
     114     111     108      99       2     117     111     108      99       2
     123     120     111     108       7     123     120    -111     108       8
     123     120     111     114       8     123     120     111     117       8
     126     120     111     114       7     126     120     111     117       7
     129     126     120     123       2     132     129     126     120       2
     138     135     129     132      18     141     138     135     129      19
     147     144     138     141      21     156     153     150     147      25
     159     153     150     147      25     162     150     153     156      25
     162     150     153     159      25     168     165     162     150      28
     174     135     129     132      18     174     135     138     141      19
     174     171     165     168      28     177     120     111     114       8
     177     120     111     117       8     177     183     129     132       8
     180     177     120     111       8     180     177     120     123       8
     180     177     120     126       7     180     177    -120     126      35
     180     177     183     129       8     180     177     192     195       2
     183     177     120     123       8     186     183     129     126       7
     186     183    -129     126      35     186     183     129     132       8
     186     183     129     135       8     186     183     177     120      36
     186     183     177     180       8     189     183     129     126       7
     189     183    -129     126      35     189     183     129     132       8
     189     183     129     135       8     189     183     177     120      36
     189     183     177     180       8     192     177     120     123       7
     192     177    -120     123      35     192     177     183     186       7
     192     177    -183     186      35     192     177     183     189       7
     192     177    -183     189      35       0       9      12      15       2
       0       9      12      18       2      24      21      12       9       7
      24      21     -12       9       8      24      21      12      15       8
      24      21      12      18       8      27      21      12      15       7
      27      21      12      18       7      30      27      21      24       2
      33      30      27      21       2      39      36      30      33      18
      42      39      36      30      19      48      45      39      42      21
      60      57      51      48      56      60      57      51      54      56
      66      63      57      60      57      69      66      63      57      25
      72      66      63      57      25      75      63      57      60      57
      75      63      66      69      25      75      63      66      72      25
      78      36      30      33      18      78      36      39      42      19
      81      21      12      15       8      81      21      12      18       8
      81      87      30      33       8      84      81      21      12       8
      84      81      21      24       8      84      81      21      27       7
      84      81     -21      27      35      84      81      87      30       8
      84      81      96      99       2      87      81      21      24       8
      90      87      30      27       7      90      87     -30      27      35
      90      87      30      33       8      90      87      30      36       8
      90      87      81      21      36      90      87      81      84       8
      93      87      30      27       7      93      87     -30      27      35
      93      87      30      33       8      93      87      30      36       8
      93      87      81      21      36      93      87      81      84       8
      96      81      21      24       7      96      81     -21      24      35
      96      81      87      90       7      96      81     -87      90      35
      96      81      87      93       7      96      81     -87      93      35
    1281    1278    1275    1266       2    1284    1278    1275    1266       2
    1290    1287    1278    1275       7    1290    1287   -1278    1275      35
    1290    1287    1278    1281       8    1290    1287    1278    1284       8
    1293    1287    1278    1281       7    1293    1287   -1278    1281      35
    1293    1287    1278    1284       7    1293    1287   -1278    1284      35
    1296    1293    1287    1290       2    1299    1296    1293    1287       2
    1305    1302    1296    1299      18    1308    1305    1302    1296      62
    1314    1311    1305    1302      63    1314    1311    1305    1308      63
    1317    1311    1305    1308      63    1320    1317    1311    1314      64
    1323    1317    1311    1314      64    1326    1323    1317    1311      56
    1326    1323    1317    1320      56    1326    1323    1329    1302      56
    1329    1302    1296    1299      18    1329    1302    1305    1308      62
    1332    1329    1323    1326      56    1335    1287    1278    1281       8
    1335    1287    1278    1284       8    1335    1341    1296    1299       8
    1338    1335    1287    1278       8    1338    1335    1287    1290       8
    1338    1335    1287    1293       7    1338    1335   -1287    1293      35
    1338    1335    1341    1296       8    1338    1335    1353    1356       2
    1341    1335    1287    1290       8    1344    1341    1296    1293       7
    1344    1341   -1296    1293      35    1344    1341    1296    1299       8
    1344    1341    1296    1302       8    1344    1341    1335    1287       8
    1344    1341    1335    1338       8    1347    1341    1296    1299       8
    1347    1341    1335    1338       7    1347    1341   -1335    1338      35
    1350    1347    1341    1296       7    1350    1347   -1341    1296      36
    1350    1347    1341    1335       7    1350    1347   -1341    1335      36
    1350    1347    1341    1344      39    1353    1335    1287    1290       7
    1353    1335   -1287    1290      35    1353    1335    1341    1344       7
    1353    1335   -1341    1344      35    1371    1368    1365    1356       2
    1374    1368    1365    1356       2    1380    1377    1368    1365       7
    1380    1377   -1368    1365      35    1380    1377    1368    1371       8
    1380    1377    1368    1374       8    1383    1377    1368    1371       7
    1383    1377   -1368    1371      35    1383    1377    1368    1374       7
    1383    1377   -1368    1374      35    1386    1383    1377    1380       2
    1389    1386    1383    1377       2    1395    1392    1386    1389      18
    1398    1395    1392    1386      62    1404    1401    1395    1392      63
    1404    1401    1395    1398      63    1407    1401    1395    1398      63
    1410    1407    1401    1404      64    1413    1407    1401    1404      64
    1416    1413    1407    1401      56    1416    1413    1407    1410      56
    1416    1413    1419    1392      56    1419    1392    1386    1389      18
    1419    1392    1395    1398      62    1422    1419    1413    1416      56
    1425    1377    1368    1371       8    1425    1377    1368    1374       8
    1425    1431    1386    1389       8    1428    1425    1377    1368       8
    1428    1425    1377    1380       8    1428    1425    1377    1383       7
    1428    1425   -1377    1383      35    1428    1425    1431    1386       8
    1428    1425    1443    1446       2    1431    1425    1377    1380       8
    1434    1431    1386    1383       7    1434    1431   -1386    1383      35
    1434    1431    1386    1389       8    1434    1431    1386    1392       8
    1434    1431    1425    1377       8    1434    1431    1425    1428       8
    1437    1431    1386    1389       8    1437    1431    1425    1428       7
    1437    1431   -1425    1428      35    1440    1437    1431    1386       7
    1440    1437   -1431    1386      36    1440    1437    1431    1425       7
    1440    1437   -1431    1425      36    1440    1437    1431    1434      39
    1443    1425    1377    1380       7    1443    1425   -1377    1380      35
    1443    1425    1431    1434       7    1443    1425   -1431    1434      35
    1461    1458    1455    1446       2    1464    1458    1455    1446       2
    1470    1467    1458    1455       7    1470    1467   -1458    1455      35
    1470    1467    1458    1461       8    1470    1467    1458    1464       8
    1473    1467    1458    1461       7    1473    1467   -1458    1461      35
    1473    1467    1458    1464       7    1473    1467   -1458    1464      35
    1476    1473    1467    1470       2    1479    1476    1473    1467       2
    1485    1482    1476    1479      18    1488    1485    1482    1476      62
    1494    1491    1485    1482      63    1494    1491    1485    1488      63
    1497    1491    1485    1488      63    1500    1497    1491    1494      23
    1503    1500    1497    1491      25    1506    1500    1497    1491      25
    1509    1497    1491    1494      23    1509    1497    1500    1503      25
    1509    1497    1500    1506      25    1512    1482    1476    1479      18
    1512    1482    1485    1488      62    1518    1467    1458    1461       8
    1518    1467    1458    1464       8    1518    1524    1476    1479       8
    1521    1518    1467    1458       8    1521    1518    1467    1470       8
    1521    1518    1467    1473       7    1521    1518   -1467    1473      35
    1521    1518    1524    1476       8    1521    1518    1536    1539       2
    1524    1518    1467    1470       8    1527    1524    1476    1473       7
    1527    1524   -1476    1473      35    1527    1524    1476    1479       8
    1527    1524    1476    1482       8    1527    1524    1518    1467       8
    1527    1524    1518    1521       8    1530    1524    1476    1479       8
    1530    1524    1518    1521       7    1530    1524   -1518    1521      35
    1533    1530    1524    1476       7    1533    1530   -1524    1476      36
    1533    1530    1524    1518       7    1533    1530   -1524    1518      36
    1533    1530    1524    1527      39    1536    1518    1467    1470       7
    1536    1518   -1467    1470      35    1536    1518    1524    1527       7
    1536    1518   -1524    1527      35    1554    1551    1548    1539       2
    1557    1551    1548    1539       2    1563    1560    1551    1548       7
    1563    1560   -1551    1548      35    1563    1560    1551    1554       8
    1563    1560    1551    1557       8    1566    1560    1551    1554       7
    1566    1560   -1551    1554      35    1566    1560    1551    1557       7
    1566    1560   -1551    1557      35    1569    1566    1560    1563       2
    1572    1569    1566    1560       2    1578    1575    1569    1572      18
    1581    1578    1575    1569      62    1587    1584    1578    1575      63
    1587    1584    1578    1581      63    1590    1584    1578    1581      63
    1593    1590    1584    1587      64    1596    1590    1584    1587      64
    1599    1596    1590    1584      56    1599    1596    1590    1593      56
    1599    1596    1602    1575      56    1602    1575    1569    1572      18
    1602    1575    1578    1581      62    1605    1602    1596    1599      56
    1608    1560    1551    1554       8    1608    1560    1551    1557       8
    1608    1614    1569    1572       8    1611    1608    1560    1551       8
    1611    1608    1560    1563       8    1611    1608    1560    1566       7
    1611    1608   -1560    1566      35    1611    1608    1614    1569       8
    1611    1608    1626    1629       2    1614    1608    1560    1563       8
    1617    1614    1569    1566       7    1617    1614   -1569    1566      35
    1617    1614    1569    1572       8    1617    1614    1569    1575       8
    1617    1614    1608    1560       8    1617    1614    1608    1611       8
    1620    1614    1569    1572       8    1620    1614    1608    1611       7
    1620    1614   -1608    1611      35    1623    1620    1614    1569       7
    1623    1620   -1614    1569      36    1623    1620    1614    1608       7
    1623    1620   -1614    1608      36    1623    1620    1614    1617      39
    1626    1608    1560    1563       7    1626    1608   -1560    1563      35
    1626    1608    1614    1617       7    1626    1608   -1614    1617      35
    1644    1641    1638    1629       2    1647    1641    1638    1629       2
    1653    1650    1641    1638       7    1653    1650   -1641    1638      35
    1653    1650    1641    1644       8    1653    1650    1641    1647       8
    1656    1650    1641    1644       7    1656    1650   -1641    1644      35
    1656    1650    1641    1647       7    1656    1650   -1641    1647      35
    1659    1656    1650    1653       2    1662    1659    1656    1650       2
    1668    1665    1659    1662      18    1671    1668    1665    1659      62
    1677    1674    1668    1665      63    1677    1674    1668    1671      63
    1680    1674    1668    1671      63    1683    1680    1674    1677      23
    1686    1683    1680    1674      25    1689    1683    1680    1674      25
    1692    1680    1674    1677      23    1692    1680    1683    1686      25
    1692    1680    1683    1689      25    1695    1665    1659    1662      18
    1695    1665    1668    1671      62    1701    1650    1641    1644       8
    1701    1650    1641    1647       8    1701    1707    1659    1662       8
    1704    1701    1650    1641       8    1704    1701    1650    1653       8
    1704    1701    1650    1656       7    1704    1701   -1650    1656      35
    1704    1701    1707    1659       8    1704    1701    1719    1722       2
    1707    1701    1650    1653       8    1710    1707    1659    1656       7
    1710    1707   -1659    1656      35    1710    1707    1659    1662       8
    1710    1707    1659    1665       8    1710    1707    1701    1650       8
    1710    1707    1701    1704       8    1713    1707    1659    1662       8
    1713    1707    1701    1704       7    1713    1707   -1701    1704      35
    1716    1713    1707    1659       7    1716    1713   -1707    1659      36
    1716    1713    1707    1701       7    1716    1713   -1707    1701      36
    1716    1713    1707    1710      39    1719    1701    1650    1653       7
    1719    1701   -1650    1653      35    1719    1701    1707    1710       7
    1719    1701   -1707    1710      35    1737    1734    1731    1722       2
    1740    1734    1731    1722       2    1746    1743    1734    1731       7
    1746    1743   -1734    1731      35    1746    1743    1734    1737       8
    1746    1743    1734    1740       8    1749    1743    1734    1737       7
    1749    1743   -1734    1737      35    1749    1743    1734    1740       7
    1749    1743   -1734    1740      35    1752    1749    1743    1746       2
    1755    1752    1749    1743       2    1761    1758    1752    1755      18
    1764    1761    1758    1752      62    1770    1767    1761    1758      63
    1770    1767    1761    1764      63    1773    1767    1761    1764      63
    1776    1773    1767    1770      64    1779    1773    1767    1770      64
    1782    1779    1773    1767      56    1782    1779    1773    1776      56
    1782    1779    1785    1758      56    1785    1758    1752    1755      18
    1785    1758    1761    1764      62    1788    1785    1779    1782      56
    1791    1743    1734    1737       8    1791    1743    1734    1740       8
    1791    1797    1752    1755       8    1794    1791    1743    1734       8
    1794    1791    1743    1746       8    1794    1791    1743    1749       7
    1794    1791   -1743    1749      35    1794    1791    1797    1752       8
    1794    1791    1809    1812       2    1797    1791    1743    1746       8
    1800    1797    1752    1749       7    1800    1797   -1752    1749      35
    1800    1797    1752    1755       8    1800    1797    1752    1758       8
    1800    1797    1791    1743       8    1800    1797    1791    1794       8
    1803    1797    1752    1755       8    1803    1797    1791    1794       7
    1803    1797   -1791    1794      35    1806    1803    1797    1752       7
    1806    1803   -1797    1752      36    1806    1803    1797    1791       7
    1806    1803   -1797    1791      36    1806    1803    1797    1800      39
    1809    1791    1743    1746       7    1809    1791   -1743    1746      35
    1809    1791    1797    1800       7    1809    1791   -1797    1800      35
    1827    1824    1821    1812       2    1830    1824    1821    1812       2
    1836    1833    1824    1821       7    1836    1833   -1824    1821      35
    1836    1833    1824    1827       8    1836    1833    1824    1830       8
    1839    1833    1824    1827       7    1839    1833   -1824    1827      35
    1839    1833    1824    1830       7    1839    1833   -1824    1830      35
    1842    1839    1833    1836       2    1845    1842    1839    1833       2
    1851    1848    1842    1845      18    1854    1851    1848    1842      62
    1860    1857    1851    1848      63    1860    1857    1851    1854      63
    1863    1857    1851    1854      63    1866    1863    1857    1860      64
    1869    1863    1857    1860      64    1872    1869    1863    1857      56
    1872    1869    1863    1866      56    1872    1869    1875    1848      56
    1875    1848    1842    1845      18    1875    1848    1851    1854      62
    1878    1875    1869    1872      56    1881    1833    1824    1827       8
    1881    1833    1824    1830       8    1881    1887    1842    1845       8
    1884    1881    1833    1824       8    1884    1881    1833    1836       8
    1884    1881    1833    1839       7    1884    1881   -1833    1839      35
    1884    1881    1887    1842       8    1884    1881    1899    1902       2
    1887    1881    1833    1836       8    1890    1887    1842    1839       7
    1890    1887   -1842    1839      35    1890    1887    1842    1845       8
    1890    1887    1842    1848       8    1890    1887    1881    1833       8
    1890    1887    1881    1884       8    1893    1887    1842    1845       8
    1893    1887    1881    1884       7    1893    1887   -1881    1884      35
    1896    1893    1887    1842       7    1896    1893   -1887    1842      36
    1896    1893    1887    1881       7    1896    1893   -1887    1881      36
    1896    1893    1887    1890      39    1899    1881    1833    1836       7
    1899    1881   -1833    1836      35    1899    1881    1887    1890       7
    1899    1881   -1887    1890      35    1917    1914    1911    1902       2
    1920    1914    1911    1902       2    1926    1923    1914    1911       7
    1926    1923   -1914    1911      35    1926    1923    1914    1917       8
    1926    1923    1914    1920       8    1929    1923    1914    1917       7
    1929    1923   -1914    1917      35    1929    1923    1914    1920       7
    1929    1923   -1914    1920      35    1932    1929    1923    1926       2
    1935    1932    1929    1923       2    1941    1938    1932    1935      18
    1944    1941    1938    1932      62    1950    1947    1941    1938      63
    1950    1947    1941    1944      63    1953    1947    1941    1944      63
    1956    1953    1947    1950      23    1959    1956    1953    1947      25
    1962    1956    1953    1947      25    1965    1953    1947    1950      23
    1965    1953    1956    1959      25    1965    1953    1956    1962      25
    1968    1938    1932    1935      18    1968    1938    1941    1944      62
    1974    1923    1914    1917       8    1974    1923    1914    1920       8
    1974    1980    1932    1935       8    1977    1974    1923    1914       8
    1977    1974    1923    1926       8    1977    1974    1923    1929       7
    1977    1974   -1923    1929      35    1977    1974    1980    1932       8
    1977    1974    1992    1995       2    1980    1974    1923    1926       8
    1983    1980    1932    1929       7    1983    1980   -1932    1929      35
    1983    1980    1932    1935       8    1983    1980    1932    1938       8
    1983    1980    1974    1923       8    1983    1980    1974    1977       8
    1986    1980    1932    1935       8    1986    1980    1974    1977       7
    1986    1980   -1974    1977      35    1989    1986    1980    1932       7
    1989    1986   -1980    1932      36    1989    1986    1980    1974       7
    1989    1986   -1980    1974      36    1989    1986    1980    1983      39
    1992    1974    1923    1926       7    1992    1974   -1923    1926      35
    1992    1974    1980    1983       7    1992    1974   -1980    1983      35
    2010    2007    2004    1995       2    2013    2007    2004    1995       2
    2019    2016    2007    2004       7    2019    2016   -2007    2004      35
    2019    2016    2007    2010       8    2019    2016    2007    2013       8
    2022    2016    2007    2010       7    2022    2016   -2007    2010      35
    2022    2016    2007    2013       7    2022    2016   -2007    2013      35
    2025    2022    2016    2019       2    2028    2025    2022    2016       2
    2034    2031    2025    2028      18    2037    2034    2031    2025      62
    2043    2040    2034    2031      63    2043    2040    2034    2037      63
    2046    2040    2034    2037      63    2049    2046    2040    2043      23
    2052    2049    2046    2040      25    2055    2049    2046    2040      25
    2058    2046    2040    2043      23    2058    2046    2049    2052      25
    2058    2046    2049    2055      25    2061    2031    2025    2028      18
    2061    2031    2034    2037      62    2067    2016    2007    2010       8
    2067    2016    2007    2013       8    2067    2073    2025    2028       8
    2070    2067    2016    2007       8    2070    2067    2016    2019       8
    2070    2067    2016    2022       7    2070    2067   -2016    2022      35
    2070    2067    2073    2025       8    2070    2067    2085    2088       2
    2073    2067    2016    2019       8    2076    2073    2025    2022       7
    2076    2073   -2025    2022      35    2076    2073    2025    2028       8
    2076    2073    2025    2031       8    2076    2073    2067    2016       8
    2076    2073    2067    2070       8    2079    2073    2025    2028       8
    2079    2073    2067    2070       7    2079    2073   -2067    2070      35
    2082    2079    2073    2025       7    2082    2079   -2073    2025      36
    2082    2079    2073    2067       7    2082    2079   -2073    2067      36
    2082    2079    2073    2076      39    2085    2067    2016    2019       7
    2085    2067   -2016    2019      35    2085    2067    2073    2076       7
    2085    2067   -2073    2076      35    2103    2100    2097    2088       2
    2106    2100    2097    2088       2    2112    2109    2100    2097       7
    2112    2109   -2100    2097      35    2112    2109    2100    2103       8
    2112    2109    2100    2106       8    2115    2109    2100    2103       7
    2115    2109   -2100    2103      35    2115    2109    2100    2106       7
    2115    2109   -2100    2106      35    2118    2115    2109    2112       2
    2121    2118    2115    2109       2    2127    2124    2118    2121      18
    2130    2127    2124    2118      62    2136    2133    2127    2124      63
    2136    2133    2127    2130      63    2139    2133    2127    2130      63
    2142    2139    2133    2136      64    2145    2139    2133    2136      64
    2148    2145    2139    2133      56    2148    2145    2139    2142      56
    2148    2145    2151    2124      56    2151    2124    2118    2121      18
    2151    2124    2127    2130      62    2154    2151    2145    2148      56
    2157    2109    2100    2103       8    2157    2109    2100    2106       8
    2157    2163    2118    2121       8    2160    2157    2109    2100       8
    2160    2157    2109    2112       8    2160    2157    2109    2115       7
    2160    2157   -2109    2115      35    2160    2157    2163    2118       8
    2160    2157    2175    2178       2    2163    2157    2109    2112       8
    2166    2163    2118    2115       7    2166    2163   -2118    2115      35
    2166    2163    2118    2121       8    2166    2163    2118    2124       8
    2166    2163    2157    2109       8    2166    2163    2157    2160       8
    2169    2163    2118    2121       8    2169    2163    2157    2160       7
    2169    2163   -2157    2160      35    2172    2169    2163    2118       7
    2172    2169   -2163    2118      36    2172    2169    2163    2157       7
    2172    2169   -2163    2157      36    2172    2169    2163    2166      39
    2175    2157    2109    2112       7    2175    2157   -2109    2112      35
    2175    2157    2163    2166       7    2175    2157   -2163    2166      35
    2193    2190    2187    2178       2    2196    2190    2187    2178       2
    2202    2199    2190    2187       7    2202    2199   -2190    2187      35
    2202    2199    2190    2193       8    2202    2199    2190    2196       8
    2205    2199    2190    2193       7    2205    2199   -2190    2193      35
    2205    2199    2190    2196       7    2205    2199   -2190    2196      35
    2208    2205    2199    2202       2    2211    2208    2205    2199       2
    2217    2214    2208    2211      18    2220    2217    2214    2208      62
    2226    2223    2217    2214      63    2226    2223    2217    2220      63
    2229    2223    2217    2220      63    2232    2229    2223    2226      23
    2235    2232    2229    2223      25    2238    2232    2229    2223      25
    2241    2229    2223    2226      23    2241    2229    2232    2235      25
    2241    2229    2232    2238      25    2244    2214    2208    2211      18
    2244    2214    2217    2220      62    2250    2199    2190    2193       8
    2250    2199    2190    2196       8    2250    2256    2208    2211       8
    2253    2250    2199    2190       8    2253    2250    2199    2202       8
    2253    2250    2199    2205       7    2253    2250   -2199    2205      35
    2253    2250    2256    2208       8    2253    2250    2268    2271       2
    2256    2250    2199    2202       8    2259    2256    2208    2205       7
    2259    2256   -2208    2205      35    2259    2256    2208    2211       8
    2259    2256    2208    2214       8    2259    2256    2250    2199       8
    2259    2256    2250    2253       8    2262    2256    2208    2211       8
    2262    2256    2250    2253       7    2262    2256   -2250    2253      35
    2265    2262    2256    2208       7    2265    2262   -2256    2208      36
    2265    2262    2256    2250       7    2265    2262   -2256    2250      36
    2265    2262    2256    2259      39    2268    2250    2199    2202       7
    2268    2250   -2199    2202      35    2268    2250    2256    2259       7
    2268    2250   -2256    2259      35    2286    2283    2280    2271       2
    2289    2283    2280    2271       2    2295    2292    2283    2280       7
    2295    2292   -2283    2280      35    2295    2292    2283    2286       8
    2295    2292    2283    2289       8    2298    2292    2283    2286       7
    2298    2292   -2283    2286      35    2298    2292    2283    2289       7
    2298    2292   -2283    2289      35    2301    2298    2292    2295       2
    2304    2301    2298    2292       2    2310    2307    2301    2304      18
    2313    2310    2307    2301      62    2319    2316    2310    2307      63
    2319    2316    2310    2313      63    2322    2316    2310    2313      63
    2325    2322    2316    2319      64    2328    2322    2316    2319      64
    2331    2328    2322    2316      56    2331    2328    2322    2325      56
    2331    2328    2334    2307      56    2334    2307    2301    2304      18
    2334    2307    2310    2313      62    2337    2334    2328    2331      56
    2340    2292    2283    2286       8    2340    2292    2283    2289       8
    2340    2346    2301    2304       8    2343    2340    2292    2283       8
    2343    2340    2292    2295       8    2343    2340    2292    2298       7
    2343    2340   -2292    2298      35    2343    2340    2346    2301       8
    2343    2340    2358    2361       2    2346    2340    2292    2295       8
    2349    2346    2301    2298       7    2349    2346   -2301    2298      35
    2349    2346    2301    2304       8    2349    2346    2301    2307       8
    2349    2346    2340    2292       8    2349    2346    2340    2343       8
    2352    2346    2301    2304       8    2352    2346    2340    2343       7
    2352    2346   -2340    2343      35    2355    2352    2346    2301       7
    2355    2352   -2346    2301      36    2355    2352    2346    2340       7
    2355    2352   -2346    2340      36    2355    2352    2346    2349      39
    2358    2340    2292    2295       7    2358    2340   -2292    2295      35
    2358    2340    2346    2349       7    2358    2340   -2346    2349      35
    2376    2373    2370    2361       2    2379    2373    2370    2361       2
    2385    2382    2373    2370       7    2385    2382   -2373    2370      35
    2385    2382    2373    2376       8    2385    2382    2373    2379       8
    2388    2382    2373    2376       7    2388    2382   -2373    2376      35
    2388    2382    2373    2379       7    2388    2382   -2373    2379      35
    2391    2388    2382    2385       2    2394    2391    2388    2382       2
    2400    2397    2391    2394      18    2403    2400    2397    2391      62
    2409    2406    2400    2397      63    2409    2406    2400    2403      63
    2412    2406    2400    2403      63    2415    2412    2406    2409      23
    2418    2415    2412    2406      25    2421    2415    2412    2406      25
    2424    2412    2406    2409      23    2424    2412    2415    2418      25
    2424    2412    2415    2421      25    2427    2397    2391    2394      18
    2427    2397    2400    2403      62    2433    2382    2373    2376       8
    2433    2382    2373    2379       8    2433    2439    2391    2394       8
    2436    2433    2382    2373       8    2436    2433    2382    2385       8
    2436    2433    2382    2388       7    2436    2433   -2382    2388      35
    2436    2433    2439    2391       8    2439    2433    2382    2385       8
    2442    2439    2391    2388       7    2442    2439   -2391    2388      35
    2442    2439    2391    2394       8    2442    2439    2391    2397       8
    2442    2439    2433    2382       8    2442    2439    2433    2436       8
    2445    2439    2391    2394       8    2445    2439    2433    2436       7
    2445    2439   -2433    2436      35    2448    2445    2439    2391       7
    2448    2445   -2439    2391      36    2448    2445    2439    2433       7
    2448    2445   -2439    2433      36    2448    2445    2439    2442      39
    2451    2433    2382    2385       7    2451    2433   -2382    2385      35
    2451    2433    2439    2442       7    2451    2433   -2439    2442      35
    1185    1188   -1182   -1179      79    1191    1185   -1182   -1179      79
    1191    1188   -1182   -1179      79    1191    1185   -1182   -1188      79
    1206    1215   -1209   -1212      81    1221    1227   -1224   -1230      80
    1233    1242   -1236   -1239      81    1089    1092   -1086   -1083      79
    1095    1089   -1086   -1083      79    1095    1092   -1086   -1083      79
    1095    1089   -1086   -1092      79    1110    1119   -1113   -1116      81
    1125    1131   -1128   -1134      80    1137    1146   -1140   -1143      81
     990     993    -987    -984      79     996     990    -987    -984      79
     996     993    -987    -984      79     996     990    -987    -993      79
    1011    1020   -1014   -1017      81    1026    1038   -1032   -1035      80
    1038    1044   -1041   -1047      80     894     897    -891    -888      79
     900     894    -891    -888      79     900     897    -891    -888      79
     900     894    -891    -897      79     915     924    -918    -921      81
     930     936    -933    -939      80     942     951    -945    -948      81
     795     798    -792    -789      79     801     795    -792    -789      79
     801     798    -792    -789      79     801     795    -792    -798      79
     816     825    -819    -822      81     831     843    -837    -840      80
     843     849    -846    -852      80     699     702    -696    -693      79
     705     699    -696    -693      79     705     702    -696    -693      79
     705     699    -696    -702      79     720     729    -723    -726      81
     735     741    -738    -744      80     747     756    -750    -753      81
     603     606    -600    -597      79     609     603    -600    -597      79
     609     606    -600    -597      79     609     603    -600    -606      79
     624     633    -627    -630      81     639     645    -642    -648      80
     651     660    -654    -657      81     504     507    -501    -498      79
     510     504    -501    -498      79     510     507    -501    -498      79
     510     504    -501    -507      79     525     534    -528    -531      81
     540     552    -546    -549      80     552     558    -555    -561      80
     405     408    -402    -399      79     411     405    -402    -399      79
     411     408    -402    -399      79     411     405    -402    -408      79
     426     435    -429    -432      81     441     453    -447    -450      80
     453     459    -456    -462      80     309     312    -306    -303      79
     315     309    -306    -303      79     315     312    -306    -303      79
     315     309    -306    -312      79     330     339    -333    -336      81
     345     351    -348    -354      80     357     366    -360    -363      81
     210     213    -207    -204      79     216     210    -207    -204      79
     216     213    -207    -204      79     216     210    -207    -213      79
     231     240    -234    -237      81     246     258    -252    -255      80
     258     264    -261    -267      80     114     117    -111    -108      79
     120     114    -111    -108      79     120     117    -111    -108      79
     120     114    -111    -117      79     135     144    -138    -141      81
     150     156    -153    -159      80     162     171    -165    -168      81
      15      18     -12      -9      79      21      15     -12      -9      79
      21      18     -12      -9      79      21      15     -12     -18      79
      36      45     -39     -42      81      51      63     -57     -60      80
      63      69     -66     -72      80    1302    1311   -1305   -1308      81
    1305    1317   -1311   -1314      81    1317    1329   -1323   -1326      80
    1392    1401   -1395   -1398      81    1395    1407   -1401   -1404      81
    1407    1419   -1413   -1416      80    1482    1491   -1485   -1488      81
    1485    1497   -1491   -1494      81    1497    1503   -1500   -1506      80
    1575    1584   -1578   -1581      81    1578    1590   -1584   -1587      81
    1590    1602   -1596   -1599      80    1665    1674   -1668   -1671      81
    1668    1680   -1674   -1677      81    1680    1686   -1683   -1689      80
    1758    1767   -1761   -1764      81    1761    1773   -1767   -1770      81
    1773    1785   -1779   -1782      80    1848    1857   -1851   -1854      81
    1851    1863   -1857   -1860      81    1863    1875   -1869   -1872      80
    1938    1947   -1941   -1944      81    1941    1953   -1947   -1950      81
    1953    1959   -1956   -1962      80    2031    2040   -2034   -2037      81
    2034    2046   -2040   -2043      81    2046    2052   -2049   -2055      80
    2124    2133   -2127   -2130      81    2127    2139   -2133   -2136      81
    2139    2151   -2145   -2148      80    2214    2223   -2217   -2220      81
    2217    2229   -2223   -2226      81    2229    2235   -2232   -2238      80
    2307    2316   -2310   -2313      81    2310    2322   -2316   -2319      81
    2322    2334   -2328   -2331      80    2397    2406   -2400   -2403      81
    2400    2412   -2406   -2409      81    2412    2418   -2415   -2421      80
%FLAG DIHEDRALS_WITHOUT_HYDROGEN
%FORMAT(10I8)
    1182    1179    1170    1173       1    1182    1179    1170    1176       1
    1191    1182    1179    1170       3    1191    1182   -1179    1170       4
    1191    1182   -1179    1170       5    1191    1182   -1179    1170       6
    1197    1191    1182    1179       8    1200    1197    1191    1182       9
    1200    1197   -1191    1182      10    1200    1254   -1248    1191      11
    1200    1254   -1248    1191      12    1200    1254   -1248    1191      13
    1206    1200    1197    1191      14    1206    1200   -1197    1191      10
    1209    1206    1200    1197      15    1209    1206   -1200    1197      16
    1209    1206   -1200    1197      17    1215    1209    1206    1200      19
    1215    1218   -1245    1206      20    1218    1215   -1209    1206      21
    1218    1245    1206    1200      22    1218    1245   -1206    1209      22
    1221    1218    1215    1209      23    1221    1218    1245    1206      20
    1224    1221    1218    1215      24    1233    1221    1218    1215      24
    1236    1233    1221    1218      26    1236    1233    1221    1224      26
    1236    1242    1245    1206      27    1236    1242   -1245    1218      27
    1242    1236    1233    1221      28    1242    1245    1206    1200      22
    1242    1245    1206    1209      22    1242    1245    1218    1215      20
    1242    1245   -1218    1221      20    1245    1206    1200    1197      18
    1245    1206   -1209    1215      19    1245    1218   -1215    1209      23
    1245    1218    1221    1224      24    1245    1218    1221    1233      24
    1245    1242   -1236    1233      28    1248    1191    1182    1179      29
    1248    1191   -1182    1179      30    1248    1191   -1182    1179      31
    1248    1191   -1182    1179      32    1248    1191   -1182    1179      33
    1248    1191   -1182    1179      34    1248    1191   -1197    1200       9
    1248    1191   -1197    1200      10    1248    1254   -1200    1197       8
    1248    1254    1200    1206       8    1254    1200   -1197    1191       9
    1254    1200   -1197    1191      10    1254    1200    1206    1209      18
    1254    1200    1206    1245      18    1254    1248    1191    1182      11
    1254    1248   -1191    1182      12    1254    1248   -1191    1182      13
    1254    1248   -1191    1197       8    1263    1248    1191    1182       8
    1263    1248    1191    1197      37    1263    1248   -1191    1197      38
    1263    1248    1254    1200       8    1086    1083    1074    1077       1
    1086    1083    1074    1080       1    1095    1086    1083    1074       3
    1095    1086   -1083    1074       4    1095    1086   -1083    1074       5
    1095    1086   -1083    1074       6    1095    1152    1167    1170      40
    1095    1152   -1167    1170      41    1095    1152   -1167    1170      42
    1101    1095    1086    1083       8    1104    1101    1095    1086       9
    1104    1101   -1095    1086      10    1104    1158   -1152    1095      11
    1104    1158   -1152    1095      12    1104    1158   -1152    1095      13
    1110    1104    1101    1095      14    1110    1104   -1101    1095      10
    1113    1110    1104    1101      15    1113    1110   -1104    1101      16
    1113    1110   -1104    1101      17    1119    1113    1110    1104      19
    1119    1122   -1149    1110      20    1122    1119   -1113    1110      21
    1122    1149    1110    1104      22    1122    1149   -1110    1113      22
    1125    1122    1119    1113      23    1125    1122    1149    1110      20
    1128    1125    1122    1119      24    1137    1125    1122    1119      24
    1140    1137    1125    1122      26    1140    1137    1125    1128      26
    1140    1146    1149    1110      27    1140    1146   -1149    1122      27
    1146    1140    1137    1125      28    1146    1149    1110    1104      22
    1146    1149    1110    1113      22    1146    1149    1122    1119      20
    1146    1149   -1122    1125      20    1149    1110    1104    1101      18
    1149    1110   -1113    1119      19    1149    1122   -1119    1113      23
    1149    1122    1125    1128      24    1149    1122    1125    1137      24
    1149    1146   -1140    1137      28    1152    1095    1086    1083      29
    1152    1095   -1086    1083      30    1152    1095   -1086    1083      31
    1152    1095   -1086    1083      32    1152    1095   -1086    1083      33
    1152    1095   -1086    1083      34    1152    1095   -1101    1104       9
    1152    1095   -1101    1104      10    1152    1158   -1104    1101       8
    1152    1158    1104    1110       8    1152    1167    1170    1173      43
    1152    1167    1170    1176      43    1152    1167    1170    1179      44
    1152    1167   -1170    1179      45    1152    1167   -1170    1179      43
    1158    1104   -1101    1095       9    1158    1104   -1101    1095      10
    1158    1104    1110    1113      18    1158    1104    1110    1149      18
    1158    1152    1095    1086      11    1158    1152   -1095    1086      12
    1158    1152   -1095    1086      13    1158    1152   -1095    1101       8
    1158    1152    1167    1170      40    1158    1152   -1167    1170      41
    1158    1152   -1167    1170      42    1167    1152    1095    1086       8
    1167    1152    1095    1101      37    1167    1152   -1095    1101      38
    1167    1152    1158    1104       8    1167    1170    1179    1182      46
    1167    1170   -1179    1182      47    1167    1170   -1179    1182      48
    1167    1170   -1179    1182      49    1167    1170   -1179    1182      50
    1167    1170   -1179    1182      51     987     984     975     978       1
     987     984     975     981       1     996     987     984     975       3
     996     987    -984     975       4     996     987    -984     975       5
     996     987    -984     975       6     996    1056    1071    1074      40
     996    1056   -1071    1074      41     996    1056   -1071    1074      42
    1002     996     987     984       8    1005    1002     996     987       9
    1005    1002    -996     987      10    1005    1062   -1056     996      11
    1005    1062   -1056     996      12    1005    1062   -1056     996      13
    1011    1005    1002     996      14    1011    1005   -1002     996      10
    1014    1011    1005    1002      52    1014    1011   -1005    1002      53
    1014    1011   -1005    1002      54    1020    1014    1011    1005      19
    1020    1023   -1053    1011      20    1023    1020   -1014    1011      21
    1023    1053    1011    1005      22    1023    1053   -1011    1014      22
    1026    1023    1020    1014      23    1026    1023    1053    1011      20
    1029    1026    1023    1020      55    1032    1026    1023    1020      55
    1038    1032    1026    1023      56    1038    1032    1026    1029      56
    1038    1050    1053    1011      27    1038    1050   -1053    1023      27
    1041    1038    1032    1026      57    1050    1038    1032    1026      57
    1050    1053    1011    1005      22    1050    1053    1011    1014      22
    1050    1053    1023    1020      20    1050    1053   -1023    1026      20
    1053    1011    1005    1002      18    1053    1011   -1014    1020      19
    1053    1023   -1020    1014      23    1053    1023    1026    1029      55
    1053    1023    1026    1032      55    1053    1050   -1038    1032      26
    1053    1050    1038    1041      26    1056     996     987     984      29
    1056     996    -987     984      30    1056     996    -987     984      31
    1056     996    -987     984      32    1056     996    -987     984      33
    1056     996    -987     984      34    1056     996   -1002    1005       9
    1056     996   -1002    1005      10    1056    1062   -1005    1002       8
    1056    1062    1005    1011       8    1056    1071    1074    1077      43
    1056    1071    1074    1080      43    1056    1071    1074    1083      44
    1056    1071   -1074    1083      45    1056    1071   -1074    1083      43
    1062    1005   -1002     996       9    1062    1005   -1002     996      10
    1062    1005    1011    1014      18    1062    1005    1011    1053      18
    1062    1056     996     987      11    1062    1056    -996     987      12
    1062    1056    -996     987      13    1062    1056    -996    1002       8
    1062    1056    1071    1074      40    1062    1056   -1071    1074      41
    1062    1056   -1071    1074      42    1071    1056     996     987       8
    1071    1056     996    1002      37    1071    1056    -996    1002      38
    1071    1056    1062    1005       8    1071    1074    1083    1086      46
    1071    1074   -1083    1086      47    1071    1074   -1083    1086      48
    1071    1074   -1083    1086      49    1071    1074   -1083    1086      50
    1071    1074   -1083    1086      51     891     888     879     882       1
     891     888     879     885       1     900     891     888     879       3
     900     891    -888     879       4     900     891    -888     879       5
     900     891    -888     879       6     900     957     972     975      40
     900     957    -972     975      41     900     957    -972     975      42
     906     900     891     888       8     909     906     900     891       9
     909     906    -900     891      10     909     963    -957     900      11
     909     963    -957     900      12     909     963    -957     900      13
     915     909     906     900      14     915     909    -906     900      10
     918     915     909     906      15     918     915    -909     906      16
     918     915    -909     906      17     924     918     915     909      19
     924     927    -954     915      20     927     924    -918     915      21
     927     954     915     909      22     927     954    -915     918      22
     930     927     924     918      23     930     927     954     915      20
     933     930     927     924      24     942     930     927     924      24
     945     942     930     927      26     945     942     930     933      26
     945     951     954     915      27     945     951    -954     927      27
     951     945     942     930      28     951     954     915     909      22
     951     954     915     918      22     951     954     927     924      20
     951     954    -927     930      20     954     915     909     906      18
     954     915    -918     924      19     954     927    -924     918      23
     954     927     930     933      24     954     927     930     942      24
     954     951    -945     942      28     957     900     891     888      29
     957     900    -891     888      30     957     900    -891     888      31
     957     900    -891     888      32     957     900    -891     888      33
     957     900    -891     888      34     957     900    -906     909       9
     957     900    -906     909      10     957     963    -909     906       8
     957     963     909     915       8     957     972     975     978      43
     957     972     975     981      43     957     972     975     984      44
     957     972    -975     984      45     957     972    -975     984      43
     963     909    -906     900       9     963     909    -906     900      10
     963     909     915     918      18     963     909     915     954      18
     963     957     900     891      11     963     957    -900     891      12
     963     957    -900     891      13     963     957    -900     906       8
     963     957     972     975      40     963     957    -972     975      41
     963     957    -972     975      42     972     957     900     891       8
     972     957     900     906      37     972     957    -900     906      38
     972     957     963     909       8     972     975     984     987      46
     972     975    -984     987      47     972     975    -984     987      48
     972     975    -984     987      49     972     975    -984     987      50
     972     975    -984     987      51     792     789     780     783       1
     792     789     780     786       1     801     792     789     780       3
     801     792    -789     780       4     801     792    -789     780       5
     801     792    -789     780       6     801     861     876     879      40
     801     861    -876     879      41     801     861    -876     879      42
     807     801     792     789       8     810     807     801     792       9
     810     807    -801     792      10     810     867    -861     801      11
     810     867    -861     801      12     810     867    -861     801      13
     816     810     807     801      14     816     810    -807     801      10
     819     816     810     807      52     819     816    -810     807      53
     819     816    -810     807      54     825     819     816     810      19
     825     828    -858     816      20     828     825    -819     816      21
     828     858     816     810      22     828     858    -816     819      22
     831     828     825     819      23     831     828     858     816      20
     834     831     828     825      55     837     831     828     825      55
     843     837     831     828      56     843     837     831     834      56
     843     855     858     816      27     843     855    -858     828      27
     846     843     837     831      57     855     843     837     831      57
     855     858     816     810      22     855     858     816     819      22
     855     858     828     825      20     855     858    -828     831      20
     858     816     810     807      18     858     816    -819     825      19
     858     828    -825     819      23     858     828     831     834      55
     858     828     831     837      55     858     855    -843     837      26
     858     855     843     846      26     861     801     792     789      29
     861     801    -792     789      30     861     801    -792     789      31
     861     801    -792     789      32     861     801    -792     789      33
     861     801    -792     789      34     861     801    -807     810       9
     861     801    -807     810      10     861     867    -810     807       8
     861     867     810     816       8     861     876     879     882      43
     861     876     879     885      43     861     876     879     888      44
     861     876    -879     888      45     861     876    -879     888      43
     867     810    -807     801       9     867     810    -807     801      10
     867     810     816     819      18     867     810     816     858      18
     867     861     801     792      11     867     861    -801     792      12
     867     861    -801     792      13     867     861    -801     807       8
     867     861     876     879      40     867     861    -876     879      41
     867     861    -876     879      42     876     861     801     792       8
     876     861     801     807      37     876     861    -801     807      38
     876     861     867     810       8     876     879     888     891      46
     876     879    -888     891      47     876     879    -888     891      48
     876     879    -888     891      49     876     879    -888     891      50
     876     879    -888     891      51     696     693     684     687       1
     696     693     684     690       1     705     696     693     684       3
     705     696    -693     684       4     705     696    -693     684       5
     705     696    -693     684       6     705     762     777     780      40
     705     762    -777     780      41     705     762    -777     780      42
     711     705     696     693       8     714     711     705     696       9
     714     711    -705     696      10     714     768    -762     705      11
     714     768    -762     705      12     714     768    -762     705      13
     720     714     711     705      14     720     714    -711     705      10
     723     720     714     711      15     723     720    -714     711      16
     723     720    -714     711      17     729     723     720     714      19
     729     732    -759     720      20     732     729    -723     720      21
     732     759     720     714      22     732     759    -720     723      22
     735     732     729     723      23     735     732     759     720      20
     738     735     732     729      24     747     735     732     729      24
     750     747     735     732      26     750     747     735     738      26
     750     756     759     720      27     750     756    -759     732      27
     756     750     747     735      28     756     759     720     714      22
     756     759     720     723      22     756     759     732     729      20
     756     759    -732     735      20     759     720     714     711      18
     759     720    -723     729      19     759     732    -729     723      23
     759     732     735     738      24     759     732     735     747      24
     759     756    -750     747      28     762     705     696     693      29
     762     705    -696     693      30     762     705    -696     693      31
     762     705    -696     693      32     762     705    -696     693      33
     762     705    -696     693      34     762     705    -711     714       9
     762     705    -711     714      10     762     768    -714     711       8
     762     768     714     720       8     762     777     780     783      43
     762     777     780     786      43     762     777     780     789      44
     762     777    -780     789      45     762     777    -780     789      43
     768     714    -711     705       9     768     714    -711     705      10
     768     714     720     723      18     768     714     720     759      18
     768     762     705     696      11     768     762    -705     696      12
     768     762    -705     696      13     768     762    -705     711       8
     768     762     777     780      40     768     762    -777     780      41
     768     762    -777     780      42     777     762     705     696       8
     777     762     705     711      37     777     762    -705     711      38
     777     762     768     714       8     777     780     789     792      46
     777     780    -789     792      47     777     780    -789     792      48
     777     780    -789     792      49     777     780    -789     792      50
     777     780    -789     792      51     600     597     588     591       1
     600     597     588     594       1     609     600     597     588       3
     609     600    -597     588       4     609     600    -597     588       5
     609     600    -597     588       6     609     666     681     684      40
     609     666    -681     684      41     609     666    -681     684      42
     615     609     600     597       8     618     615     609     600       9
     618     615    -609     600      10     618     672    -666     609      11
     618     672    -666     609      12     618     672    -666     609      13
     624     618     615     609      14     624     618    -615     609      10
     627     624     618     615      15     627     624    -618     615      16
     627     624    -618     615      17     633     627     624     618      19
     633     636    -663     624      20     636     633    -627     624      21
     636     663     624     618      22     636     663    -624     627      22
     639     636     633     627      23     639     636     663     624      20
     642     639     636     633      24     651     639     636     633      24
     654     651     639     636      26     654     651     639     642      26
     654     660     663     624      27     654     660    -663     636      27
     660     654     651     639      28     660     663     624     618      22
     660     663     624     627      22     660     663     636     633      20
     660     663    -636     639      20     663     624     618     615      18
     663     624    -627     633      19     663     636    -633     627      23
     663     636     639     642      24     663     636     639     651      24
     663     660    -654     651      28     666     609     600     597      29
     666     609    -600     597      30     666     609    -600     597      31
     666     609    -600     597      32     666     609    -600     597      33
     666     609    -600     597      34     666     609    -615     618       9
     666     609    -615     618      10     666     672    -618     615       8
     666     672     618     624       8     666     681     684     687      43
     666     681     684     690      43     666     681     684     693      44
     666     681    -684     693      45     666     681    -684     693      43
     672     618    -615     609       9     672     618    -615     609      10
     672     618     624     627      18     672     618     624     663      18
     672     666     609     600      11     672     666    -609     600      12
     672     666    -609     600      13     672     666    -609     615       8
     672     666     681     684      40     672     666    -681     684      41
     672     666    -681     684      42     681     666     609     600       8
     681     666     609     615      37     681     666    -609     615      38
     681     666     672     618       8     681     684     693     696      46
     681     684    -693     696      47     681     684    -693     696      48
     681     684    -693     696      49     681     684    -693     696      50
     681     684    -693     696      51     501     498     489     492       1
     501     498     489     495       1     510     501     498     489       3
     510     501    -498     489       4     510     501    -498     489       5
     510     501    -498     489       6     510     570     585     588      40
     510     570    -585     588      41     510     570    -585     588      42
     516     510     501     498       8     519     516     510     501       9
     519     516    -510     501      10     519     576    -570     510      11
     519     576    -570     510      12     519     576    -570     510      13
     525     519     516     510      14     525     519    -516     510      10
     528     525     519     516      52     528     525    -519     516      53
     528     525    -519     516      54     534     528     525     519      19
     534     537    -567     525      20     537     534    -528     525      21
     537     567     525     519      22     537     567    -525     528      22
     540     537     534     528      23     540     537     567     525      20
     543     540     537     534      55     546     540     537     534      55
     552     546     540     537      56     552     546     540     543      56
     552     564     567     525      27     552     564    -567     537      27
     555     552     546     540      57     564     552     546     540      57
     564     567     525     519      22     564     567     525     528      22
     564     567     537     534      20     564     567    -537     540      20
     567     525     519     516      18     567     525    -528     534      19
     567     537    -534     528      23     567     537     540     543      55
     567     537     540     546      55     567     564    -552     546      26
     567     564     552     555      26     570     510     501     498      29
     570     510    -501     498      30     570     510    -501     498      31
     570     510    -501     498      32     570     510    -501     498      33
     570     510    -501     498      34     570     510    -516     519       9
     570     510    -516     519      10     570     576    -519     516       8
     570     576     519     525       8     570     585     588     591      43
     570     585     588     594      43     570     585     588     597      44
     570     585    -588     597      45     570     585    -588     597      43
     576     519    -516     510       9     576     519    -516     510      10
     576     519     525     528      18     576     519     525     567      18
     576     570     510     501      11     576     570    -510     501      12
     576     570    -510     501      13     576     570    -510     516       8
     576     570     585     588      40     576     570    -585     588      41
     576     570    -585     588      42     585     570     510     501       8
     585     570     510     516      37     585     570    -510     516      38
     585     570     576     519       8     585     588     597     600      46
     585     588    -597     600      47     585     588    -597     600      48
     585     588    -597     600      49     585     588    -597     600      50
     585     588    -597     600      51     402     399     390     393       1
     402     399     390     396       1     411     402     399     390       3
     411     402    -399     390       4     411     402    -399     390       5
     411     402    -399     390       6     411     471     486     489      40
     411     471    -486     489      41     411     471    -486     489      42
     417     411     402     399       8     420     417     411     402       9
     420     417    -411     402      10     420     477    -471     411      11
     420     477    -471     411      12     420     477    -471     411      13
     426     420     417     411      14     426     420    -417     411      10
     429     426     420     417      52     429     426    -420     417      53
     429     426    -420     417      54     435     429     426     420      19
     435     438    -468     426      20     438     435    -429     426      21
     438     468     426     420      22     438     468    -426     429      22
     441     438     435     429      23     441     438     468     426      20
     444     441     438     435      55     447     441     438     435      55
     453     447     441     438      56     453     447     441     444      56
     453     465     468     426      27     453     465    -468     438      27
     456     453     447     441      57     465     453     447     441      57
     465     468     426     420      22     465     468     426     429      22
     465     468     438     435      20     465     468    -438     441      20
     468     426     420     417      18     468     426    -429     435      19
     468     438    -435     429      23     468     438     441     444      55
     468     438     441     447      55     468     465    -453     447      26
     468     465     453     456      26     471     411     402     399      29
     471     411    -402     399      30     471     411    -402     399      31
     471     411    -402     399      32     471     411    -402     399      33
     471     411    -402     399      34     471     411    -417     420       9
     471     411    -417     420      10     471     477    -420     417       8
     471     477     420     426       8     471     486     489     492      43
     471     486     489     495      43     471     486     489     498      44
     471     486    -489     498      45     471     486    -489     498      43
     477     420    -417     411       9     477     420    -417     411      10
     477     420     426     429      18     477     420     426     468      18
     477     471     411     402      11     477     471    -411     402      12
     477     471    -411     402      13     477     471    -411     417       8
     477     471     486     489      40     477     471    -486     489      41
     477     471    -486     489      42     486     471     411     402       8
     486     471     411     417      37     486     471    -411     417      38
     486     471     477     420       8     486     489     498     501      46
     486     489    -498     501      47     486     489    -498     501      48
     486     489    -498     501      49     486     489    -498     501      50
     486     489    -498     501      51     306     303     294     297       1
     306     303     294     300       1     315     306     303     294       3
     315     306    -303     294       4     315     306    -303     294       5
     315     306    -303     294       6     315     372     387     390      40
     315     372    -387     390      41     315     372    -387     390      42
     321     315     306     303       8     324     321     315     306       9
     324     321    -315     306      10     324     378    -372     315      11
     324     378    -372     315      12     324     378    -372     315      13
     330     324     321     315      14     330     324    -321     315      10
     333     330     324     321      15     333     330    -324     321      16
     333     330    -324     321      17     339     333     330     324      19
     339     342    -369     330      20     342     339    -333     330      21
     342     369     330     324      22     342     369    -330     333      22
     345     342     339     333      23     345     342     369     330      20
     348     345     342     339      24     357     345     342     339      24
     360     357     345     342      26     360     357     345     348      26
     360     366     369     330      27     360     366    -369     342      27
     366     360     357     345      28     366     369     330     324      22
     366     369     330     333      22     366     369     342     339      20
     366     369    -342     345      20     369     330     324     321      18
     369     330    -333     339      19     369     342    -339     333      23
     369     342     345     348      24     369     342     345     357      24
     369     366    -360     357      28     372     315     306     303      29
     372     315    -306     303      30     372     315    -306     303      31
     372     315    -306     303      32     372     315    -306     303      33
     372     315    -306     303      34     372     315    -321     324       9
     372     315    -321     324      10     372     378    -324     321       8
     372     378     324     330       8     372     387     390     393      43
     372     387     390     396      43     372     387     390     399      44
     372     387    -390     399      45     372     387    -390     399      43
     378     324    -321     315       9     378     324    -321     315      10
     378     324     330     333      18     378     324     330     369      18
     378     372     315     306      11     378     372    -315     306      12
     378     372    -315     306      13     378     372    -315     321       8
     378     372     387     390      40     378     372    -387     390      41
     378     372    -387     390      42     387     372     315     306       8
     387     372     315     321      37     387     372    -315     321      38
     387     372     378     324       8     387     390     399     402      46
     387     390    -399     402      47     387     390    -399     402      48
     387     390    -399     402      49     387     390    -399     402      50
     387     390    -399     402      51     207     204     195     198       1
     207     204     195     201       1     216     207     204     195       3
     216     207    -204     195       4     216     207    -204     195       5
     216     207    -204     195       6     216     276     291     294      40
     216     276    -291     294      41     216     276    -291     294      42
     222     216     207     204       8     225     222     216     207       9
     225     222    -216     207      10     225     282    -276     216      11
     225     282    -276     216      12     225     282    -276     216      13
     231     225     222     216      14     231     225    -222     216      10
     234     231     225     222      52     234     231    -225     222      53
     234     231    -225     222      54     240     234     231     225      19
     240     243    -273     231      20     243     240    -234     231      21
     243     273     231     225      22     243     273    -231     234      22
     246     243     240     234      23     246     243     273     231      20
     249     246     243     240      55     252     246     243     240      55
     258     252     246     243      56     258     252     246     249      56
     258     270     273     231      27     258     270    -273     243      27
     261     258     252     246      57     270     258     252     246      57
     270     273     231     225      22     270     273     231     234      22
     270     273     243     240      20     270     273    -243     246      20
     273     231     225     222      18     273     231    -234     240      19
     273     243    -240     234      23     273     243     246     249      55
     273     243     246     252      55     273     270    -258     252      26
     273     270     258     261      26     276     216     207     204      29
     276     216    -207     204      30     276     216    -207     204      31
     276     216    -207     204      32     276     216    -207     204      33
     276     216    -207     204      34     276     216    -222     225       9
     276     216    -222     225      10     276     282    -225     222       8
     276     282     225     231       8     276     291     294     297      43
     276     291     294     300      43     276     291     294     303      44
     276     291    -294     303      45     276     291    -294     303      43
     282     225    -222     216       9     282     225    -222     216      10
     282     225     231     234      18     282     225     231     273      18
     282     276     216     207      11     282     276    -216     207      12
     282     276    -216     207      13     282     276    -216     222       8
     282     276     291     294      40     282     276    -291     294      41
     282     276    -291     294      42     291     276     216     207       8
     291     276     216     222      37     291     276    -216     222      38
     291     276     282     225       8     291     294     303     306      46
     291     294    -303     306      47     291     294    -303     306      48
     291     294    -303     306      49     291     294    -303     306      50
     291     294    -303     306      51     111     108      99     102       1
     111     108      99     105       1     120     111     108      99       3
     120     111    -108      99       4     120     111    -108      99       5
     120     111    -108      99       6     120     177     192     195      40
     120     177    -192     195      41     120     177    -192     195      42
     126     120     111     108       8     129     126     120     111       9
     129     126    -120     111      10     129     183    -177     120      11
     129     183    -177     120      12     129     183    -177     120      13
     135     129     126     120      14     135     129    -126     120      10
     138     135     129     126      15     138     135    -129     126      16
     138     135    -129     126      17     144     138     135     129      19
     144     147    -174     135      20     147     144    -138     135      21
     147     174     135     129      22     147     174    -135     138      22
     150     147     144     138      23     150     147     174     135      20
     153     150     147     144      24     162     150     147     144      24
     165     162     150     147      26     165     162     150     153      26
     165     171     174     135      27     165     171    -174     147      27
     171     165     162     150      28     171     174     135     129      22
     171     174     135     138      22     171     174     147     144      20
     171     174    -147     150      20     174     135     129     126      18
     174     135    -138     144      19     174     147    -144     138      23
     174     147     150     153      24     174     147     150     162      24
     174     171    -165     162      28     177     120     111     108      29
     177     120    -111     108      30     177     120    -111     108      31
     177     120    -111     108      32     177     120    -111     108      33
     177     120    -111     108      34     177     120    -126     129       9
     177     120    -126     129      10     177     183    -129     126       8
     177     183     129     135       8     177     192     195     198      43
     177     192     195     201      43     177     192     195     204      44
     177     192    -195     204      45     177     192    -195     204      43
     183     129    -126     120       9     183     129    -126     120      10
     183     129     135     138      18     183     129     135     174      18
     183     177     120     111      11     183     177    -120     111      12
     183     177    -120     111      13     183     177    -120     126       8
     183     177     192     195      40     183     177    -192     195      41
     183     177    -192     195      42     192     177     120     111       8
     192     177     120     126      37     192     177    -120     126      38
     192     177     183     129       8     192     195     204     207      46
     192     195    -204     207      47     192     195    -204     207      48
     192     195    -204     207      49     192     195    -204     207      50
     192     195    -204     207      51       3       0       9      12       1
       6       0       9      12       1       0       9      12      21       3
       0       9     -12      21       4       0       9     -12      21       5
       0       9     -12      21       6      21      81      96      99      40
      21      81     -96      99      41      21      81     -96      99      42
      27      21      12       9       8      30      27      21      12       9
      30      27     -21      12      10      30      87     -81      21      11
      30      87     -81      21      12      30      87     -81      21      13
      36      30      27      21      14      36      30     -27      21      10
      39      36      30      27      52      39      36     -30      27      53
      39      36     -30      27      54      45      39      36      30      19
      45      48     -78      36      20      48      45     -39      36      21
      48      78      36      30      22      48      78     -36      39      22
      51      48      45      39      23      51      48      78      36      20
      54      51      48      45      55      57      51      48      45      55
      63      57      51      48      56      63      57      51      54      56
      63      75      78      36      27      63      75     -78      48      27
      66      63      57      51      57      75      63      57      51      57
      75      78      36      30      22      75      78      36      39      22
      75      78      48      45      20      75      78     -48      51      20
      78      36      30      27      18      78      36     -39      45      19
      78      48     -45      39      23      78      48      51      54      55
      78      48      51      57      55      78      75     -63      57      26
      78      75      63      66      26      81      21      12       9      29
      81      21     -12       9      30      81      21     -12       9      31
      81      21     -12       9      32      81      21     -12       9      33
      81      21     -12       9      34      81      21     -27      30       9
      81      21     -27      30      10      81      87     -30      27       8
      81      87      30      36       8      81      96      99     102      43
      81      96      99     105      43      81      96      99     108      44
      81      96     -99     108      45      81      96     -99     108      43
      87      30     -27      21       9      87      30     -27      21      10
      87      30      36      39      18      87      30      36      78      18
      87      81      21      12      11      87      81     -21      12      12
      87      81     -21      12      13      87      81     -21      27       8
      87      81      96      99      40      87      81     -96      99      41
      87      81     -96      99      42      96      81      21      12       8
      96      81      21      27      37      96      81     -21      27      38
      96      81      87      30       8      96      99     108     111      46
      96      99    -108     111      47      96      99    -108     111      48
      96      99    -108     111      49      96      99    -108     111      50
      96      99    -108     111      51    1278    1275    1266    1269       1
    1278    1275    1266    1272       1    1287    1278    1275    1266       2
    1287    1335    1353    1356       2    1293    1287    1278    1275       8
    1296    1293    1287    1278       9    1296    1293   -1287    1278      10
    1296    1341   -1335    1287      11    1296    1341   -1335    1287      12
    1296    1341   -1335    1287      13    1302    1296    1293    1287      14
    1302    1296   -1293    1287      10    1305    1302    1296    1293      58
    1305    1302   -1296    1293      59    1305    1302   -1296    1293      60
    1305    1302   -1296    1293      61    1311    1305    1302    1296      62
    1317    1311    1305    1302      63    1317    1323   -1329    1302      56
    1320    1317    1311    1305      64    1320    1317   -1311    1305      65
    1323    1317    1311    1305      64    1323    1329    1302    1296      66
    1323    1329   -1302    1305      66    1329    1302    1296    1293      18
    1329    1302    1305    1311      62    1329    1323   -1317    1311      56
    1329    1323    1317    1320      56    1332    1329    1302    1296      66
    1332    1329    1302    1305      66    1332    1329    1323    1317      56
    1335    1287    1278    1275      67    1335    1287   -1278    1275      68
    1335    1287   -1278    1275      69    1335    1287   -1293    1296       9
    1335    1287   -1293    1296      10    1335    1341   -1296    1293       8
    1335    1341    1296    1302       8    1335    1353    1356    1359       1
    1335    1353    1356    1362       1    1335    1353    1356    1365      70
    1335    1353   -1356    1365       1    1341    1296   -1293    1287       9
    1341    1296   -1293    1287      10    1341    1296    1302    1305      18
    1341    1296    1302    1329      18    1341    1335    1287    1278      11
    1341    1335   -1287    1278      12    1341    1335   -1287    1278      13
    1341    1335   -1287    1293       8    1341    1335    1353    1356       2
    1347    1341    1296    1293      37    1347    1341   -1296    1293      38
    1347    1341    1296    1302       8    1347    1341    1335    1287       8
    1353    1335    1287    1278       8    1353    1335    1287    1293      37
    1353    1335   -1287    1293      38    1353    1335    1341    1296       8
    1353    1335    1341    1347      37    1353    1335   -1341    1347      38
    1353    1356    1365    1368      71    1353    1356   -1365    1368      72
    1353    1356   -1365    1368      73    1368    1365    1356    1359       1
    1368    1365    1356    1362       1    1377    1368    1365    1356       2
    1377    1425    1443    1446       2    1383    1377    1368    1365       8
    1386    1383    1377    1368       9    1386    1383   -1377    1368      10
    1386    1431   -1425    1377      11    1386    1431   -1425    1377      12
    1386    1431   -1425    1377      13    1392    1386    1383    1377      14
    1392    1386   -1383    1377      10    1395    1392    1386    1383      58
    1395    1392   -1386    1383      59    1395    1392   -1386    1383      60
    1395    1392   -1386    1383      61    1401    1395    1392    1386      62
    1407    1401    1395    1392      63    1407    1413   -1419    1392      56
    1410    1407    1401    1395      64    1410    1407   -1401    1395      65
    1413    1407    1401    1395      64    1413    1419    1392    1386      66
    1413    1419   -1392    1395      66    1419    1392    1386    1383      18
    1419    1392    1395    1401      62    1419    1413   -1407    1401      56
    1419    1413    1407    1410      56    1422    1419    1392    1386      66
    1422    1419    1392    1395      66    1422    1419    1413    1407      56
    1425    1377    1368    1365      67    1425    1377   -1368    1365      68
    1425    1377   -1368    1365      69    1425    1377   -1383    1386       9
    1425    1377   -1383    1386      10    1425    1431   -1386    1383       8
    1425    1431    1386    1392       8    1425    1443    1446    1449       1
    1425    1443    1446    1452       1    1425    1443    1446    1455      70
    1425    1443   -1446    1455       1    1431    1386   -1383    1377       9
    1431    1386   -1383    1377      10    1431    1386    1392    1395      18
    1431    1386    1392    1419      18    1431    1425    1377    1368      11
    1431    1425   -1377    1368      12    1431    1425   -1377    1368      13
    1431    1425   -1377    1383       8    1431    1425    1443    1446       2
    1437    1431    1386    1383      37    1437    1431   -1386    1383      38
    1437    1431    1386    1392       8    1437    1431    1425    1377       8
    1443    1425    1377    1368       8    1443    1425    1377    1383      37
    1443    1425   -1377    1383      38    1443    1425    1431    1386       8
    1443    1425    1431    1437      37    1443    1425   -1431    1437      38
    1443    1446    1455    1458      71    1443    1446   -1455    1458      72
    1443    1446   -1455    1458      73    1458    1455    1446    1449       1
    1458    1455    1446    1452       1    1467    1458    1455    1446       2
    1467    1518    1536    1539       2    1473    1467    1458    1455       8
    1476    1473    1467    1458       9    1476    1473   -1467    1458      10
    1476    1524   -1518    1467      11    1476    1524   -1518    1467      12
    1476    1524   -1518    1467      13    1482    1476    1473    1467      14
    1482    1476   -1473    1467      10    1485    1482    1476    1473      74
    1485    1482   -1476    1473      75    1485    1482   -1476    1473      76
    1485    1482   -1476    1473      77    1491    1485    1482    1476      62
    1497    1491    1485    1482      63    1497    1509   -1512    1482      78
    1500    1497    1491    1485      23    1509    1497    1491    1485      23
    1509    1512    1482    1476      66    1509    1512   -1482    1485      66
    1512    1482    1476    1473      18    1512    1482    1485    1491      62
    1512    1509   -1497    1491      26    1512    1509    1497    1500      26
    1515    1512    1482    1476      66    1515    1512    1482    1485      66
    1515    1512    1509    1497      78    1518    1467    1458    1455      67
    1518    1467   -1458    1455      68    1518    1467   -1458    1455      69
    1518    1467   -1473    1476       9    1518    1467   -1473    1476      10
    1518    1524   -1476    1473       8    1518    1524    1476    1482       8
    1518    1536    1539    1542       1    1518    1536    1539    1545       1
    1518    1536    1539    1548      70    1518    1536   -1539    1548       1
    1524    1476   -1473    1467       9    1524    1476   -1473    1467      10
    1524    1476    1482    1485      18    1524    1476    1482    1512      18
    1524    1518    1467    1458      11    1524    1518   -1467    1458      12
    1524    1518   -1467    1458      13    1524    1518   -1467    1473       8
    1524    1518    1536    1539       2    1530    1524    1476    1473      37
    1530    1524   -1476    1473      38    1530    1524    1476    1482       8
    1530    1524    1518    1467       8    1536    1518    1467    1458       8
    1536    1518    1467    1473      37    1536    1518   -1467    1473      38
    1536    1518    1524    1476       8    1536    1518    1524    1530      37
    1536    1518   -1524    1530      38    1536    1539    1548    1551      71
    1536    1539   -1548    1551      72    1536    1539   -1548    1551      73
    1551    1548    1539    1542       1    1551    1548    1539    1545       1
    1560    1551    1548    1539       2    1560    1608    1626    1629       2
    1566    1560    1551    1548       8    1569    1566    1560    1551       9
    1569    1566   -1560    1551      10    1569    1614   -1608    1560      11
    1569    1614   -1608    1560      12    1569    1614   -1608    1560      13
    1575    1569    1566    1560      14    1575    1569   -1566    1560      10
    1578    1575    1569    1566      58    1578    1575   -1569    1566      59
    1578    1575   -1569    1566      60    1578    1575   -1569    1566      61
    1584    1578    1575    1569      62    1590    1584    1578    1575      63
    1590    1596   -1602    1575      56    1593    1590    1584    1578      64
    1593    1590   -1584    1578      65    1596    1590    1584    1578      64
    1596    1602    1575    1569      66    1596    1602   -1575    1578      66
    1602    1575    1569    1566      18    1602    1575    1578    1584      62
    1602    1596   -1590    1584      56    1602    1596    1590    1593      56
    1605    1602    1575    1569      66    1605    1602    1575    1578      66
    1605    1602    1596    1590      56    1608    1560    1551    1548      67
    1608    1560   -1551    1548      68    1608    1560   -1551    1548      69
    1608    1560   -1566    1569       9    1608    1560   -1566    1569      10
    1608    1614   -1569    1566       8    1608    1614    1569    1575       8
    1608    1626    1629    1632       1    1608    1626    1629    1635       1
    1608    1626    1629    1638      70    1608    1626   -1629    1638       1
    1614    1569   -1566    1560       9    1614    1569   -1566    1560      10
    1614    1569    1575    1578      18    1614    1569    1575    1602      18
    1614    1608    1560    1551      11    1614    1608   -1560    1551      12
    1614    1608   -1560    1551      13    1614    1608   -1560    1566       8
    1614    1608    1626    1629       2    1620    1614    1569    1566      37
    1620    1614   -1569    1566      38    1620    1614    1569    1575       8
    1620    1614    1608    1560       8    1626    1608    1560    1551       8
    1626    1608    1560    1566      37    1626    1608   -1560    1566      38
    1626    1608    1614    1569       8    1626    1608    1614    1620      37
    1626    1608   -1614    1620      38    1626    1629    1638    1641      71
    1626    1629   -1638    1641      72    1626    1629   -1638    1641      73
    1641    1638    1629    1632       1    1641    1638    1629    1635       1
    1650    1641    1638    1629       2    1650    1701    1719    1722       2
    1656    1650    1641    1638       8    1659    1656    1650    1641       9
    1659    1656   -1650    1641      10    1659    1707   -1701    1650      11
    1659    1707   -1701    1650      12    1659    1707   -1701    1650      13
    1665    1659    1656    1650      14    1665    1659   -1656    1650      10
    1668    1665    1659    1656      74    1668    1665   -1659    1656      75
    1668    1665   -1659    1656      76    1668    1665   -1659    1656      77
    1674    1668    1665    1659      62    1680    1674    1668    1665      63
    1680    1692   -1695    1665      78    1683    1680    1674    1668      23
    1692    1680    1674    1668      23    1692    1695    1665    1659      66
    1692    1695   -1665    1668      66    1695    1665    1659    1656      18
    1695    1665    1668    1674      62    1695    1692   -1680    1674      26
    1695    1692    1680    1683      26    1698    1695    1665    1659      66
    1698    1695    1665    1668      66    1698    1695    1692    1680      78
    1701    1650    1641    1638      67    1701    1650   -1641    1638      68
    1701    1650   -1641    1638      69    1701    1650   -1656    1659       9
    1701    1650   -1656    1659      10    1701    1707   -1659    1656       8
    1701    1707    1659    1665       8    1701    1719    1722    1725       1
    1701    1719    1722    1728       1    1701    1719    1722    1731      70
    1701    1719   -1722    1731       1    1707    1659   -1656    1650       9
    1707    1659   -1656    1650      10    1707    1659    1665    1668      18
    1707    1659    1665    1695      18    1707    1701    1650    1641      11
    1707    1701   -1650    1641      12    1707    1701   -1650    1641      13
    1707    1701   -1650    1656       8    1707    1701    1719    1722       2
    1713    1707    1659    1656      37    1713    1707   -1659    1656      38
    1713    1707    1659    1665       8    1713    1707    1701    1650       8
    1719    1701    1650    1641       8    1719    1701    1650    1656      37
    1719    1701   -1650    1656      38    1719    1701    1707    1659       8
    1719    1701    1707    1713      37    1719    1701   -1707    1713      38
    1719    1722    1731    1734      71    1719    1722   -1731    1734      72
    1719    1722   -1731    1734      73    1734    1731    1722    1725       1
    1734    1731    1722    1728       1    1743    1734    1731    1722       2
    1743    1791    1809    1812       2    1749    1743    1734    1731       8
    1752    1749    1743    1734       9    1752    1749   -1743    1734      10
    1752    1797   -1791    1743      11    1752    1797   -1791    1743      12
    1752    1797   -1791    1743      13    1758    1752    1749    1743      14
    1758    1752   -1749    1743      10    1761    1758    1752    1749      58
    1761    1758   -1752    1749      59    1761    1758   -1752    1749      60
    1761    1758   -1752    1749      61    1767    1761    1758    1752      62
    1773    1767    1761    1758      63    1773    1779   -1785    1758      56
    1776    1773    1767    1761      64    1776    1773   -1767    1761      65
    1779    1773    1767    1761      64    1779    1785    1758    1752      66
    1779    1785   -1758    1761      66    1785    1758    1752    1749      18
    1785    1758    1761    1767      62    1785    1779   -1773    1767      56
    1785    1779    1773    1776      56    1788    1785    1758    1752      66
    1788    1785    1758    1761      66    1788    1785    1779    1773      56
    1791    1743    1734    1731      67    1791    1743   -1734    1731      68
    1791    1743   -1734    1731      69    1791    1743   -1749    1752       9
    1791    1743   -1749    1752      10    1791    1797   -1752    1749       8
    1791    1797    1752    1758       8    1791    1809    1812    1815       1
    1791    1809    1812    1818       1    1791    1809    1812    1821      70
    1791    1809   -1812    1821       1    1797    1752   -1749    1743       9
    1797    1752   -1749    1743      10    1797    1752    1758    1761      18
    1797    1752    1758    1785      18    1797    1791    1743    1734      11
    1797    1791   -1743    1734      12    1797    1791   -1743    1734      13
    1797    1791   -1743    1749       8    1797    1791    1809    1812       2
    1803    1797    1752    1749      37    1803    1797   -1752    1749      38
    1803    1797    1752    1758       8    1803    1797    1791    1743       8
    1809    1791    1743    1734       8    1809    1791    1743    1749      37
    1809    1791   -1743    1749      38    1809    1791    1797    1752       8
    1809    1791    1797    1803      37    1809    1791   -1797    1803      38
    1809    1812    1821    1824      71    1809    1812   -1821    1824      72
    1809    1812   -1821    1824      73    1824    1821    1812    1815       1
    1824    1821    1812    1818       1    1833    1824    1821    1812       2
    1833    1881    1899    1902       2    1839    1833    1824    1821       8
    1842    1839    1833    1824       9    1842    1839   -1833    1824      10
    1842    1887   -1881    1833      11    1842    1887   -1881    1833      12
    1842    1887   -1881    1833      13    1848    1842    1839    1833      14
    1848    1842   -1839    1833      10    1851    1848    1842    1839      58
    1851    1848   -1842    1839      59    1851    1848   -1842    1839      60
    1851    1848   -1842    1839      61    1857    1851    1848    1842      62
    1863    1857    1851    1848      63    1863    1869   -1875    1848      56
    1866    1863    1857    1851      64    1866    1863   -1857    1851      65
    1869    1863    1857    1851      64    1869    1875    1848    1842      66
    1869    1875   -1848    1851      66    1875    1848    1842    1839      18
    1875    1848    1851    1857      62    1875    1869   -1863    1857      56
    1875    1869    1863    1866      56    1878    1875    1848    1842      66
    1878    1875    1848    1851      66    1878    1875    1869    1863      56
    1881    1833    1824    1821      67    1881    1833   -1824    1821      68
    1881    1833   -1824    1821      69    1881    1833   -1839    1842       9
    1881    1833   -1839    1842      10    1881    1887   -1842    1839       8
    1881    1887    1842    1848       8    1881    1899    1902    1905       1
    1881    1899    1902    1908       1    1881    1899    1902    1911      70
    1881    1899   -1902    1911       1    1887    1842   -1839    1833       9
    1887    1842   -1839    1833      10    1887    1842    1848    1851      18
    1887    1842    1848    1875      18    1887    1881    1833    1824      11
    1887    1881   -1833    1824      12    1887    1881   -1833    1824      13
    1887    1881   -1833    1839       8    1887    1881    1899    1902       2
    1893    1887    1842    1839      37    1893    1887   -1842    1839      38
    1893    1887    1842    1848       8    1893    1887    1881    1833       8
    1899    1881    1833    1824       8    1899    1881    1833    1839      37
    1899    1881   -1833    1839      38    1899    1881    1887    1842       8
    1899    1881    1887    1893      37    1899    1881   -1887    1893      38
    1899    1902    1911    1914      71    1899    1902   -1911    1914      72
    1899    1902   -1911    1914      73    1914    1911    1902    1905       1
    1914    1911    1902    1908       1    1923    1914    1911    1902       2
    1923    1974    1992    1995       2    1929    1923    1914    1911       8
    1932    1929    1923    1914       9    1932    1929   -1923    1914      10
    1932    1980   -1974    1923      11    1932    1980   -1974    1923      12
    1932    1980   -1974    1923      13    1938    1932    1929    1923      14
    1938    1932   -1929    1923      10    1941    1938    1932    1929      74
    1941    1938   -1932    1929      75    1941    1938   -1932    1929      76
    1941    1938   -1932    1929      77    1947    1941    1938    1932      62
    1953    1947    1941    1938      63    1953    1965   -1968    1938      78
    1956    1953    1947    1941      23    1965    1953    1947    1941      23
    1965    1968    1938    1932      66    1965    1968   -1938    1941      66
    1968    1938    1932    1929      18    1968    1938    1941    1947      62
    1968    1965   -1953    1947      26    1968    1965    1953    1956      26
    1971    1968    1938    1932      66    1971    1968    1938    1941      66
    1971    1968    1965    1953      78    1974    1923    1914    1911      67
    1974    1923   -1914    1911      68    1974    1923   -1914    1911      69
    1974    1923   -1929    1932       9    1974    1923   -1929    1932      10
    1974    1980   -1932    1929       8    1974    1980    1932    1938       8
    1974    1992    1995    1998       1    1974    1992    1995    2001       1
    1974    1992    1995    2004      70    1974    1992   -1995    2004       1
    1980    1932   -1929    1923       9    1980    1932   -1929    1923      10
    1980    1932    1938    1941      18    1980    1932    1938    1968      18
    1980    1974    1923    1914      11    1980    1974   -1923    1914      12
    1980    1974   -1923    1914      13    1980    1974   -1923    1929       8
    1980    1974    1992    1995       2    1986    1980    1932    1929      37
    1986    1980   -1932    1929      38    1986    1980    1932    1938       8
    1986    1980    1974    1923       8    1992    1974    1923    1914       8
    1992    1974    1923    1929      37    1992    1974   -1923    1929      38
    1992    1974    1980    1932       8    1992    1974    1980    1986      37
    1992    1974   -1980    1986      38    1992    1995    2004    2007      71
    1992    1995   -2004    2007      72    1992    1995   -2004    2007      73
    2007    2004    1995    1998       1    2007    2004    1995    2001       1
    2016    2007    2004    1995       2    2016    2067    2085    2088       2
    2022    2016    2007    2004       8    2025    2022    2016    2007       9
    2025    2022   -2016    2007      10    2025    2073   -2067    2016      11
    2025    2073   -2067    2016      12    2025    2073   -2067    2016      13
    2031    2025    2022    2016      14    2031    2025   -2022    2016      10
    2034    2031    2025    2022      74    2034    2031   -2025    2022      75
    2034    2031   -2025    2022      76    2034    2031   -2025    2022      77
    2040    2034    2031    2025      62    2046    2040    2034    2031      63
    2046    2058   -2061    2031      78    2049    2046    2040    2034      23
    2058    2046    2040    2034      23    2058    2061    2031    2025      66
    2058    2061   -2031    2034      66    2061    2031    2025    2022      18
    2061    2031    2034    2040      62    2061    2058   -2046    2040      26
    2061    2058    2046    2049      26    2064    2061    2031    2025      66
    2064    2061    2031    2034      66    2064    2061    2058    2046      78
    2067    2016    2007    2004      67    2067    2016   -2007    2004      68
    2067    2016   -2007    2004      69    2067    2016   -2022    2025       9
    2067    2016   -2022    2025      10    2067    2073   -2025    2022       8
    2067    2073    2025    2031       8    2067    2085    2088    2091       1
    2067    2085    2088    2094       1    2067    2085    2088    2097      70
    2067    2085   -2088    2097       1    2073    2025   -2022    2016       9
    2073    2025   -2022    2016      10    2073    2025    2031    2034      18
    2073    2025    2031    2061      18    2073    2067    2016    2007      11
    2073    2067   -2016    2007      12    2073    2067   -2016    2007      13
    2073    2067   -2016    2022       8    2073    2067    2085    2088       2
    2079    2073    2025    2022      37    2079    2073   -2025    2022      38
    2079    2073    2025    2031       8    2079    2073    2067    2016       8
    2085    2067    2016    2007       8    2085    2067    2016    2022      37
    2085    2067   -2016    2022      38    2085    2067    2073    2025       8
    2085    2067    2073    2079      37    2085    2067   -2073    2079      38
    2085    2088    2097    2100      71    2085    2088   -2097    2100      72
    2085    2088   -2097    2100      73    2100    2097    2088    2091       1
    2100    2097    2088    2094       1    2109    2100    2097    2088       2
    2109    2157    2175    2178       2    2115    2109    2100    2097       8
    2118    2115    2109    2100       9    2118    2115   -2109    2100      10
    2118    2163   -2157    2109      11    2118    2163   -2157    2109      12
    2118    2163   -2157    2109      13    2124    2118    2115    2109      14
    2124    2118   -2115    2109      10    2127    2124    2118    2115      58
    2127    2124   -2118    2115      59    2127    2124   -2118    2115      60
    2127    2124   -2118    2115      61    2133    2127    2124    2118      62
    2139    2133    2127    2124      63    2139    2145   -2151    2124      56
    2142    2139    2133    2127      64    2142    2139   -2133    2127      65
    2145    2139    2133    2127      64    2145    2151    2124    2118      66
    2145    2151   -2124    2127      66    2151    2124    2118    2115      18
    2151    2124    2127    2133      62    2151    2145   -2139    2133      56
    2151    2145    2139    2142      56    2154    2151    2124    2118      66
    2154    2151    2124    2127      66    2154    2151    2145    2139      56
    2157    2109    2100    2097      67    2157    2109   -2100    2097      68
    2157    2109   -2100    2097      69    2157    2109   -2115    2118       9
    2157    2109   -2115    2118      10    2157    2163   -2118    2115       8
    2157    2163    2118    2124       8    2157    2175    2178    2181       1
    2157    2175    2178    2184       1    2157    2175    2178    2187      70
    2157    2175   -2178    2187       1    2163    2118   -2115    2109       9
    2163    2118   -2115    2109      10    2163    2118    2124    2127      18
    2163    2118    2124    2151      18    2163    2157    2109    2100      11
    2163    2157   -2109    2100      12    2163    2157   -2109    2100      13
    2163    2157   -2109    2115       8    2163    2157    2175    2178       2
    2169    2163    2118    2115      37    2169    2163   -2118    2115      38
    2169    2163    2118    2124       8    2169    2163    2157    2109       8
    2175    2157    2109    2100       8    2175    2157    2109    2115      37
    2175    2157   -2109    2115      38    2175    2157    2163    2118       8
    2175    2157    2163    2169      37    2175    2157   -2163    2169      38
    2175    2178    2187    2190      71    2175    2178   -2187    2190      72
    2175    2178   -2187    2190      73    2190    2187    2178    2181       1
    2190    2187    2178    2184       1    2199    2190    2187    2178       2
    2199    2250    2268    2271       2    2205    2199    2190    2187       8
    2208    2205    2199    2190       9    2208    2205   -2199    2190      10
    2208    2256   -2250    2199      11    2208    2256   -2250    2199      12
    2208    2256   -2250    2199      13    2214    2208    2205    2199      14
    2214    2208   -2205    2199      10    2217    2214    2208    2205      74
    2217    2214   -2208    2205      75    2217    2214   -2208    2205      76
    2217    2214   -2208    2205      77    2223    2217    2214    2208      62
    2229    2223    2217    2214      63    2229    2241   -2244    2214      78
    2232    2229    2223    2217      23    2241    2229    2223    2217      23
    2241    2244    2214    2208      66    2241    2244   -2214    2217      66
    2244    2214    2208    2205      18    2244    2214    2217    2223      62
    2244    2241   -2229    2223      26    2244    2241    2229    2232      26
    2247    2244    2214    2208      66    2247    2244    2214    2217      66
    2247    2244    2241    2229      78    2250    2199    2190    2187      67
    2250    2199   -2190    2187      68    2250    2199   -2190    2187      69
    2250    2199   -2205    2208       9    2250    2199   -2205    2208      10
    2250    2256   -2208    2205       8    2250    2256    2208    2214       8
    2250    2268    2271    2274       1    2250    2268    2271    2277       1
    2250    2268    2271    2280      70    2250    2268   -2271    2280       1
    2256    2208   -2205    2199       9    2256    2208   -2205    2199      10
    2256    2208    2214    2217      18    2256    2208    2214    2244      18
    2256    2250    2199    2190      11    2256    2250   -2199    2190      12
    2256    2250   -2199    2190      13    2256    2250   -2199    2205       8
    2256    2250    2268    2271       2    2262    2256    2208    2205      37
    2262    2256   -2208    2205      38    2262    2256    2208    2214       8
    2262    2256    2250    2199       8    2268    2250    2199    2190       8
    2268    2250    2199    2205      37    2268    2250   -2199    2205      38
    2268    2250    2256    2208       8    2268    2250    2256    2262      37
    2268    2250   -2256    2262      38    2268    2271    2280    2283      71
    2268    2271   -2280    2283      72    2268    2271   -2280    2283      73
    2283    2280    2271    2274       1    2283    2280    2271    2277       1
    2292    2283    2280    2271       2    2292    2340    2358    2361       2
    2298    2292    2283    2280       8    2301    2298    2292    2283       9
    2301    2298   -2292    2283      10    2301    2346   -2340    2292      11
    2301    2346   -2340    2292      12    2301    2346   -2340    2292      13
    2307    2301    2298    2292      14    2307    2301   -2298    2292      10
    2310    2307    2301    2298      58    2310    2307   -2301    2298      59
    2310    2307   -2301    2298      60    2310    2307   -2301    2298      61
    2316    2310    2307    2301      62    2322    2316    2310    2307      63
    2322    2328   -2334    2307      56    2325    2322    2316    2310      64
    2325    2322   -2316    2310      65    2328    2322    2316    2310      64
    2328    2334    2307    2301      66    2328    2334   -2307    2310      66
    2334    2307    2301    2298      18    2334    2307    2310    2316      62
    2334    2328   -2322    2316      56    2334    2328    2322    2325      56
    2337    2334    2307    2301      66    2337    2334    2307    2310      66
    2337    2334    2328    2322      56    2340    2292    2283    2280      67
    2340    2292   -2283    2280      68    2340    2292   -2283    2280      69
    2340    2292   -2298    2301       9    2340    2292   -2298    2301      10
    2340    2346   -2301    2298       8    2340    2346    2301    2307       8
    2340    2358    2361    2364       1    2340    2358    2361    2367       1
    2340    2358    2361    2370      70    2340    2358   -2361    2370       1
    2346    2301   -2298    2292       9    2346    2301   -2298    2292      10
    2346    2301    2307    2310      18    2346    2301    2307    2334      18
    2346    2340    2292    2283      11    2346    2340   -2292    2283      12
    2346    2340   -2292    2283      13    2346    2340   -2292    2298       8
    2346    2340    2358    2361       2    2352    2346    2301    2298      37
    2352    2346   -2301    2298      38    2352    2346    2301    2307       8
    2352    2346    2340    2292       8    2358    2340    2292    2283       8
    2358    2340    2292    2298      37    2358    2340   -2292    2298      38
    2358    2340    2346    2301       8    2358    2340    2346    2352      37
    2358    2340   -2346    2352      38    2358    2361    2370    2373      71
    2358    2361   -2370    2373      72    2358    2361   -2370    2373      73
    2373    2370    2361    2364       1    2373    2370    2361    2367       1
    2382    2373    2370    2361       2    2388    2382    2373    2370       8
    2391    2388    2382    2373       9    2391    2388   -2382    2373      10
    2391    2439   -2433    2382      11    2391    2439   -2433    2382      12
    2391    2439   -2433    2382      13    2397    2391    2388    2382      14
    2397    2391   -2388    2382      10    2400    2397    2391    2388      74
    2400    2397   -2391    2388      75    2400    2397   -2391    2388      76
    2400    2397   -2391    2388      77    2406    2400    2397    2391      62
    2412    2406    2400    2397      63    2412    2424   -2427    2397      78
    2415    2412    2406    2400      23    2424    2412    2406    2400      23
    2424    2427    2397    2391      66    2424    2427   -2397    2400      66
    2427    2397    2391    2388      18    2427    2397    2400    2406      62
    2427    2424   -2412    2406      26    2427    2424    2412    2415      26
    2430    2427    2397    2391      66    2430    2427    2397    2400      66
    2430    2427    2424    2412      78    2433    2382    2373    2370      67
    2433    2382   -2373    2370      68    2433    2382   -2373    2370      69
    2433    2382   -2388    2391       9    2433    2382   -2388    2391      10
    2433    2439   -2391    2388       8    2433    2439    2391    2397       8
    2439    2391   -2388    2382       9    2439    2391   -2388    2382      10
    2439    2391    2397    2400      18    2439    2391    2397    2427      18
    2439    2433    2382    2373      11    2439    2433   -2382    2373      12
    2439    2433   -2382    2373      13    2439    2433   -2382    2388       8
    2445    2439    2391    2388      37    2445    2439   -2391    2388      38
    2445    2439    2391    2397       8    2445    2439    2433    2382       8
    2451    2433    2382    2373       8    2451    2433    2382    2388      37
    2451    2433   -2382    2388      38    2451    2433    2439    2391       8
    2451    2433    2439    2445      37    2451    2433   -2439    2445      38
    1209    1245   -1206   -1200      80    1221    1245   -1218   -1215      79
    1218    1224   -1221   -1233      81    1218    1206   -1245   -1242      79
    1113    1149   -1110   -1104      80    1125    1149   -1122   -1119      79
    1122    1128   -1125   -1137      81    1122    1110   -1149   -1146      79
    1053    1014   -1011   -1005      80    1020    1026   -1023   -1053      79
    1023    1032   -1026   -1029      82    1041    1032   -1038   -1050      81
    1023    1011   -1053   -1050      79     918     954    -915    -909      80
     930     954    -927    -924      79     927     933    -930    -942      81
     927     915    -954    -951      79     858     819    -816    -810      80
     831     858    -828    -825      79     828     837    -831    -834      82
     846     837    -843    -855      81     828     816    -858    -855      79
     723     759    -720    -714      80     735     759    -732    -729      79
     732     738    -735    -747      81     732     720    -759    -756      79
     627     663    -624    -618      80     639     663    -636    -633      79
     636     642    -639    -651      81     636     624    -663    -660      79
     567     528    -525    -519      80     540     567    -537    -534      79
     537     546    -540    -543      82     555     546    -552    -564      81
     537     525    -567    -564      79     468     429    -426    -420      80
     441     468    -438    -435      79     438     447    -441    -444      82
     456     447    -453    -465      81     438     426    -468    -465      79
     333     369    -330    -324      80     345     369    -342    -339      79
     342     348    -345    -357      81     342     330    -369    -366      79
     273     234    -231    -225      80     246     273    -243    -240      79
     243     252    -246    -249      82     261     252    -258    -270      81
     243     231    -273    -270      79     138     174    -135    -129      80
     150     174    -147    -144      79     147     153    -150    -162      81
     147     135    -174    -171      79      78      39     -36     -30      80
      51      78     -48     -45      79      48      57     -51     -54      82
      66      57     -63     -75      81      48      36     -78     -75      79
    1329    1305   -1302   -1296      80    1311    1323   -1317   -1320      82
    1302    1323   -1329   -1332      82    1419    1395   -1392   -1386      80
    1401    1413   -1407   -1410      82    1392    1413   -1419   -1422      82
    1512    1485   -1482   -1476      80    1491    1500   -1497   -1509      81
    1482    1509   -1512   -1515      82    1602    1578   -1575   -1569      80
    1584    1596   -1590   -1593      82    1575    1596   -1602   -1605      82
    1695    1668   -1665   -1659      80    1674    1683   -1680   -1692      81
    1665    1692   -1695   -1698      82    1785    1761   -1758   -1752      80
    1767    1779   -1773   -1776      82    1758    1779   -1785   -1788      82
    1875    1851   -1848   -1842      80    1857    1869   -1863   -1866      82
    1848    1869   -1875   -1878      82    1968    1941   -1938   -1932      80
    1947    1956   -1953   -1965      81    1938    1965   -1968   -1971      82
    2061    2034   -2031   -2025      80    2040    2049   -2046   -2058      81
    2031    2058   -2061   -2064      82    2151    2127   -2124   -2118      80
    2133    2145   -2139   -2142      82    2124    2145   -2151   -2154      82
    2244    2217   -2214   -2208      80    2223    2232   -2229   -2241      81
    2214    2241   -2244   -2247      82    2334    2310   -2307   -2301      80
    2316    2328   -2322   -2325      82    2307    2328   -2334   -2337      82
    2427    2400   -2397   -2391      80    2406    2415   -2412   -2424      81
    2397    2424   -2427   -2430      82
%FLAG EXCLUDED_ATOMS_LIST
%FORMAT(10I8)
       2       3       4       5       6       7       8       3       4       5
       4       5       5       6       7       8       9      10      28       6
       7       8       9      10      11      28      29      30      33       7
       8       9      10      28       8       9      10      28       9      10
      11      12      13      28      29      30      31      32      33      34
      10      11      28      29      30      33      11      12      13      14
      27      28      29      30      31      32      33      12      13      14
      15      16      17      26      27      28      29      30      31      32
      33      13      14      27      28      30      31      32      14      15
      16      17      18      22      26      27      28      30      31      32
      15      16      17      18      26      27      30      16      17      27
      17      18      19      20      26      27      18      19      20      21
      22      26      27      19      20      21      22      23      26      27
      20      21      22      27      21      22      23      24      25      26
      27      22      23      26      23      24      25      26      27      24
      25      26      27      25      26      26      27      30      29      30
      31      32      33      34      35      36      37      30      31      32
      33      34      31      32      33      34      32      33      33      34
      35      36      37      38      35      36      37      38      39      40
      41      36      37      38      37      38      38      39      40      41
      42      43      60      39      40      41      42      43      44      60
      61      62      65      40      41      42      43      60      41      42
      43      60      42      43      44      45      46      60      61      62
      63      64      65      66      43      44      60      61      62      65
      44      45      46      47      59      60      61      62      63      64
      65      45      46      47      48      49      50      58      59      60
      61      62      63      64      65      46      47      59      60      62
      63      64      47      48      49      50      51      56      58      59
      60      62      63      64      48      49      50      51      58      59
      62      49      50      59      50      51      52      55      58      59
      51      52      53      54      55      56      58      59      52      53
      54      55      56      57      58      59      53      54      55      56
      59      54      55      55      56      57      58      59      57      58
      59      58      59      59      62      61      62      63      64      65
      66      67      68      69      62      63      64      65      66      63
      64      65      66      64      65      65      66      67      68      69
      70      67      68      69      70      71      72      73      68      69
      70      69      70      70      71      72      73      74      75      93
      71      72      73      74      75      76      93      94      95      98
      72      73      74      75      93      73      74      75      93      74
      75      76      77      78      93      94      95      96      97      98
      99      75      76      93      94      95      98      76      77      78
      79      92      93      94      95      96      97      98      77      78
      79      80      81      82      91      92      93      94      95      96
      97      98      78      79      92      93      95      96      97      79
      80      81      82      83      87      91      92      93      95      96
      97      80      81      82      83      91      92      95      81      82
      92      82      83      84      85      91      92      83      84      85
      86      87      91      92      84      85      86      87      88      91
      92      85      86      87      92      86      87      88      89      90
      91      92      87      88      91      88      89      90      91      92
      89      90      91      92      90      91      91      92      95      94
      95      96      97      98      99     100     101     102      95      96
      97      98      99      96      97      98      99      97      98      98
      99     100     101     102     103     100     101     102     103     104
     105     106     101     102     103     102     103     103     104     105
     106     107     108     125     104     105     106     107     108     109
     125     126     127     130     105     106     107     108     125     106
     107     108     125     107     108     109     110     111     125     126
     127     128     129     130     131     108     109     125     126     127
     130     109     110     111     112     124     125     126     127     128
     129     130     110     111     112     113     114     115     123     124
     125     126     127     128     129     130     111     112     124     125
     127     128     129     112     113     114     115     116     121     123
     124     125     127     128     129     113     114     115     116     123
     124     127     114     115     124     115     116     117     120     123
     124     116     117     118     119     120     121     123     124     117
     118     119     120     121     122     123     124     118     119     120
     121     124     119     120     120     121     122     123     124     122
     123     124     123     124     124     127     126     127     128     129
     130     131     132     133     134     127     128     129     130     131
     128     129     130     131     129     130     130     131     132     133
     134     135     132     133     134     135     136     137     138     133
     134     135     134     135     135     136     137     138     139     140
     158     136     137     138     139     140     141     158     159     160
     163     137     138     139     140     158     138     139     140     158
     139     140     141     142     143     158     159     160     161     162
     163     164     140     141     158     159     160     163     141     142
     143     144     157     158     159     160     161     162     163     142
     143     144     145     146     147     156     157     158     159     160
     161     162     163     143     144     157     158     160     161     162
     144     145     146     147     148     152     156     157     158     160
     161     162     145     146     147     148     156     157     160     146
     147     157     147     148     149     150     156     157     148     149
     150     151     152     156     157     149     150     151     152     153
     156     157     150     151     152     157     151     152     153     154
     155     156     157     152     153     156     153     154     155     156
     157     154     155     156     157     155     156     156     157     160
     159     160     161     162     163     164     165     166     167     160
     161     162     163     164     161     162     163     164     162     163
     163     164     165     166     167     168     165     166     167     168
     169     170     171     166     167     168     167     168     168     169
     170     171     172     173     191     169     170     171     172     173
     174     191     192     193     196     170     171     172     173     191
     171     172     173     191     172     173     174     175     176     191
     192     193     194     195     196     197     173     174     191     192
     193     196     174     175     176     177     190     191     192     193
     194     195     196     175     176     177     178     179     180     189
     190     191     192     193     194     195     196     176     177     190
     191     193     194     195     177     178     179     180     181     185
     189     190     191     193     194     195     178     179     180     181
     189     190     193     179     180     190     180     181     182     183
     189     190     181     182     183     184     185     189     190     182
     183     184     185     186     189     190     183     184     185     190
     184     185     186     187     188     189     190     185     186     189
     186     187     188     189     190     187     188     189     190     188
     189     189     190     193     192     193     194     195     196     197
     198     199     200     193     194     195     196     197     194     195
     196     197     195     196     196     197     198     199     200     201
     198     199     200     201     202     203     204     199     200     201
     200     201     201     202     203     204     205     206     223     202
     203     204     205     206     207     223     224     225     228     203
     204     205     206     223     204     205     206     223     205     206
     207     208     209     223     224     225     226     227     228     229
     206     207     223     224     225     228     207     208     209     210
     222     223     224     225     226     227     228     208     209     210
     211     212     213     221     222     223     224     225     226     227
     228     209     210     222     223     225     226     227     210     211
     212     213     214     219     221     222     223     225     226     227
     211     212     213     214     221     222     225     212     213     222
     213     214     215     218     221     222     214     215     216     217
     218     219     221     222     215     216     217     218     219     220
     221     222     216     217     218     219     222     217     218     218
     219     220     221     222     220     221     222     221     222     222
     225     224     225     226     227     228     229     230     231     232
     225     226     227     228     229     226     227     228     229     227
     228     228     229     230     231     232     233     230     231     232
     233     234     235     236     231     232     233     232     233     233
     234     235     236     237     238     255     234     235     236     237
     238     239     255     256     257     260     235     236     237     238
     255     236     237     238     255     237     238     239     240     241
     255     256     257     258     259     260     261     238     239     255
     256     257     260     239     240     241     242     254     255     256
     257     258     259     260     240     241     242     243     244     245
     253     254     255     256     257     258     259     260     241     242
     254     255     257     258     259     242     243     244     245     246
     251     253     254     255     257     258     259     243     244     245
     246     253     254     257     244     245     254     245     246     247
     250     253     254     246     247     248     249     250     251     253
     254     247     248     249     250     251     252     253     254     248
     249     250     251     254     249     250     250     251     252     253
     254     252     253     254     253     254     254     257     256     257
     258     259     260     261     262     263     264     257     258     259
     260     261     258     259     260     261     259     260     260     261
     262     263     264     265     262     263     264     265     266     267
     268     263     264     265     264     265     265     266     267     268
     269     270     288     266     267     268     269     270     271     288
     289     290     293     267     268     269     270     288     268     269
     270     288     269     270     271     272     273     288     289     290
     291     292     293     294     270     271     288     289     290     293
     271     272     273     274     287     288     289     290     291     292
     293     272     273     274     275     276     277     286     287     288
     289     290     291     292     293     273     274     287     288     290
     291     292     274     275     276     277     278     282     286     287
     288     290     291     292     275     276     277     278     286     287
     290     276     277     287     277     278     279     280     286     287
     278     279     280     281     282     286     287     279     280     281
     282     283     286     287     280     281     282     287     281     282
     283     284     285     286     287     282     283     286     283     284
     285     286     287     284     285     286     287     285     286     286
     287     290     289     290     291     292     293     294     295     296
     297     290     291     292     293     294     291     292     293     294
     292     293     293     294     295     296     297     298     295     296
     297     298     299     300     301     296     297     298     297     298
     298     299     300     301     302     303     320     299     300     301
     302     303     304     320     321     322     325     300     301     302
     303     320     301     302     303     320     302     303     304     305
     306     320     321     322     323     324     325     326     303     304
     320     321     322     325     304     305     306     307     319     320
     321     322     323     324     325     305     306     307     308     309
     310     318     319     320     321     322     323     324     325     306
     307     319     320     322     323     324     307     308     309     310
     311     316     318     319     320     322     323     324     308     309
     310     311     318     319     322     309     310     319     310     311
     312     315     318     319     311     312     313     314     315     316
     318     319     312     313     314     315     316     317     318     319
     313     314     315     316     319     314     315     315     316     317
     318     319     317     318     319     318     319     319     322     321
     322     323     324     325     326     327     328     329     322     323
     324     325     326     323     324     325     326     324     325     325
     326     327     328     329     330     327     328     329     330     331
     332     333     328     329     330     329     330     330     331     332
     333     334     335     353     331     332     333     334     335     336
     353     354     355     358     332     333     334     335     353     333
     334     335     353     334     335     336     337     338     353     354
     355     356     357     358     359     335     336     353     354     355
     358     336     337     338     339     352     353     354     355     356
     357     358     337     338     339     340     341     342     351     352
     353     354     355     356     357     358     338     339     352     353
     355     356     357     339     340     341     342     343     347     351
     352     353     355     356     357     340     341     342     343     351
     352     355     341     342     352     342     343     344     345     351
     352     343     344     345     346     347     351     352     344     345
     346     347     348     351     352     345     346     347     352     346
     347     348     349     350     351     352     347     348     351     348
     349     350     351     352     349     350     351     352     350     351
     351     352     355     354     355     356     357     358     359     360
     361     362     355     356     357     358     359     356     357     358
     359     357     358     358     359     360     361     362     363     360
     361     362     363     364     365     366     361     362     363     362
     363     363     364     365     366     367     368     385     364     365
     366     367     368     369     385     386     387     390     365     366
     367     368     385     366     367     368     385     367     368     369
     370     371     385     386     387     388     389     390     391     368
     369     385     386     387     390     369     370     371     372     384
     385     386     387     388     389     390     370     371     372     373
     374     375     383     384     385     386     387     388     389     390
     371     372     384     385     387     388     389     372     373     374
     375     376     381     383     384     385     387     388     389     373
     374     375     376     383     384     387     374     375     384     375
     376     377     380     383     384     376     377     378     379     380
     381     383     384     377     378     379     380     381     382     383
     384     378     379     380     381     384     379     380     380     381
     382     383     384     382     383     384     383     384     384     387
     386     387     388     389     390     391     392     393     394     387
     388     389     390     391     388     389     390     391     389     390
     390     391     392     393     394     395     392     393     394     395
     396     397     398     393     394     395     394     395     395     396
     397     398     399     400     417     396     397     398     399     400
     401     417     418     419     422     397     398     399     400     417
     398     399     400     417     399     400     401     402     403     417
     418     419     420     421     422     400     401     417     418     419
     422     401     402     403     404     416     417     418     419     420
     421     422     402     403     404     405     406     407     415     416
     417     418     419     420     421     422     403     404     416     417
     419     420     421     404     405     406     407     408     413     415
     416     417     419     420     421     405     406     407     408     415
     416     419     406     407     416     407     408     409     412     415
     416     408     409     410     411     412     413     415     416     409
     410     411     412     413     414     415     416     410     411     412
     413     416     411     412     412     413     414     415     416     414
     415     416     415     416     416     419     418     419     420     421
     422     419     420     421     422     420     421     422     421     422
     422       0     424     425     426     427     428     429     430     425
     426     427     426     427     427     428     429     430     431     432
     446     428     429     430     431     432     433     446     447     448
     452     429     430     431     432     446     430     431     432     446
     431     432     433     434     435     446     447     448     449     450
     452     453     432     433     446     447     448     452     433     434
     435     436     444     446     447     448     449     450     452     434
     435     436     437     438     442     444     445     446     447     448
     449     450     451     452     435     436     444     446     448     449
     450     436     437     438     439     440     442     443     444     445
     446     448     449     450     437     438     439     440     441     442
     444     445     448     438     439     440     444     439     440     441
     442     443     444     440     441     442     441     442     443     444
     445     442     443     444     443     444     445     444     445     445
     448       0     447     448     449     450     451     452     453     454
     455     456     448     449     450     452     453     449     450     451
     452     453     450     451     452     451     452       0     453     454
     455     456     457     454     455     456     457     458     459     460
     455     456     457     456     457     457     458     459     460     461
     462     476     458     459     460     461     462     463     476     477
     478     482     459     460     461     462     476     460     461     462
     476     461     462     463     464     465     476     477     478     479
     480     482     483     462     463     476     477     478     482     463
     464     465     466     474     476     477     478     479     480     482
     464     465     466     467     468     472     474     475     476     477
     478     479     480     481     482     465     466     474     476     478
     479     480     466     467     468     469     470     472     473     474
     475     476     478     479     480     467     468     469     470     471
     472     474     475     478     468     469     470     474     469     470
     471     472     473     474     470     471     472     471     472     473
     474     475     472     473     474     473     474     475     474     475
     475     478       0     477     478     479     480     481     482     483
     484     485     486     478     479     480     482     483     479     480
     481     482     483     480     481     482     481     482       0     483
     484     485     486     487     484     485     486     487     488     489
     490     485     486     487     486     487     487     488     489     490
     491     492     507     488     489     490     491     492     493     507
     508     509     513     489     490     491     492     507     490     491
     492     507     491     492     493     494     495     507     508     509
     510     511     513     514     492     493     507     508     509     513
     493     494     495     496     505     507     508     509     510     511
     513     494     495     496     497     498     504     505     506     507
     508     509     510     511     512     513     495     496     505     507
     509     510     511     496     497     498     499     500     504     505
     506     507     509     510     511     497     498     499     500     501
     504     505     506     509     498     499     500     505     499     500
     501     502     503     504     505     500     501     504     501     502
     503     504     505     506     502     503     504     505     503     504
     504     505     506     506     509       0     508     509     510     511
     512     513     514     515     516     517     509     510     511     513
     514     510     511     512     513     514     511     512     513     512
     513       0     514     515     516     517     518     515     516     517
     518     519     520     521     516     517     518     517     518     518
     519     520     521     522     523     537     519     520     521     522
     523     524     537     538     539     543     520     521     522     523
     537     521     522     523     537     522     523     524     525     526
     537     538     539     540     541     543     544     523     524     537
     538     539     543     524     525     526     527     535     537     538
     539     540     541     543     525     526     527     528     529     533
     535     536     537     538     539     540     541     542     543     526
     527     535     537     539     540     541     527     528     529     530
     531     533     534     535     536     537     539     540     541     528
     529     530     531     532     533     535     536     539     529     530
     531     535     530     531     532     533     534     535     531     532
     533     532     533     534     535     536     533     534     535     534
     535     536     535     536     536     539       0     538     539     540
     541     542     543     544     545     546     547     539     540     541
     543     544     540     541     542     543     544     541     542     543
     542     543       0     544     545     546     547     548     545     546
     547     548     549     550     551     546     547     548     547     548
     548     549     550     551     552     553     568     549     550     551
     552     553     554     568     569     570     574     550     551     552
     553     568     551     552     553     568     552     553     554     555
     556     568     569     570     571     572     574     575     553     554
     568     569     570     574     554     555     556     557     566     568
     569     570     571     572     574     555     556     557     558     559
     565     566     567     568     569     570     571     572     573     574
     556     557     566     568     570     571     572     557     558     559
     560     561     565     566     567     568     570     571     572     558
     559     560     561     562     565     566     567     570     559     560
     561     566     560     561     562     563     564     565     566     561
     562     565     562     563     564     565     566     567     563     564
     565     566     564     565     565     566     567     567     570       0
     569     570     571     572     573     574     575     576     577     578
     570     571     572     574     575     571     572     573     574     575
     572     573     574     573     574       0     575     576     577     578
     579     576     577     578     579     580     581     582     577     578
     579     578     579     579     580     581     582     583     584     598
     580     581     582     583     584     585     598     599     600     604
     581     582     583     584     598     582     583     584     598     583
     584     585     586     587     598     599     600     601     602     604
     605     584     585     598     599     600     604     585     586     587
     588     596     598     599     600     601     602     604     586     587
     588     589     590     594     596     597     598     599     600     601
     602     603     604     587     588     596     598     600     601     602
     588     589     590     591     592     594     595     596     597     598
     600     601     602     589     590     591     592     593     594     596
     597     600     590     591     592     596     591     592     593     594
     595     596     592     593     594     593     594     595     596     597
     594     595     596     595     596     597     596     597     597     600
       0     599     600     601     602     603     604     605     606     607
     608     600     601     602     604     605     601     602     603     604
     605     602     603     604     603     604       0     605     606     607
     608     609     606     607     608     609     610     611     612     607
     608     609     608     609     609     610     611     612     613     614
     628     610     611     612     613     614     615     628     629     630
     634     611     612     613     614     628     612     613     614     628
     613     614     615     616     617     628     629     630     631     632
     634     635     614     615     628     629     630     634     615     616
     617     618     626     628     629     630     631     632     634     616
     617     618     619     620     624     626     627     628     629     630
     631     632     633     634     617     618     626     628     630     631
     632     618     619     620     621     622     624     625     626     627
     628     630     631     632     619     620     621     622     623     624
     626     627     630     620     621     622     626     621     622     623
     624     625     626     622     623     624     623     624     625     626
     627     624     625     626     625     626     627     626     627     627
     630       0     629     630     631     632     633     634     635     636
     637     638     630     631     632     634     635     631     632     633
     634     635     632     633     634     633     634       0     635     636
     637     638     639     636     637     638     639     640     641     642
     637     638     639     638     639     639     640     641     642     643
     644     659     640     641     642     643     644     645     659     660
     661     665     641     642     643     644     659     642     643     644
     659     643     644     645     646     647     659     660     661     662
     663     665     666     644     645     659     660     661     665     645
     646     647     648     657     659     660     661     662     663     665
     646     647     648     649     650     656     657     658     659     660
     661     662     663     664     665     647     648     657     659     661
     662     663     648     649     650     651     652     656     657     658
     659     661     662     663     649     650     651     652     653     656
     657     658     661     650     651     652     657     651     652     653
     654     655     656     657     652     653     656     653     654     655
     656     657     658     654     655     656     657     655     656     656
     657     658     658     661       0     660     661     662     663     664
     665     666     667     668     669     661     662     663     665     666
     662     663     664     665     666     663     664     665     664     665
       0     666     667     668     669     670     667     668     669     670
     671     672     673     668     669     670     669     670     670     671
     672     673     674     675     690     671     672     673     674     675
     676     690     691     692     696     672     673     674     675     690
     673     674     675     690     674     675     676     677     678     690
     691     692     693     694     696     697     675     676     690     691
     692     696     676     677     678     679     688     690     691     692
     693     694     696     677     678     679     680     681     687     688
     689     690     691     692     693     694     695     696     678     679
     688     690     692     693     694     679     680     681     682     683
     687     688     689     690     692     693     694     680     681     682
     683     684     687     688     689     692     681     682     683     688
     682     683     684     685     686     687     688     683     684     687
     684     685     686     687     688     689     685     686     687     688
     686     687     687     688     689     689     692       0     691     692
     693     694     695     696     697     698     699     700     692     693
     694     696     697     693     694     695     696     697     694     695
     696     695     696       0     697     698     699     700     701     698
     699     700     701     702     703     704     699     700     701     700
     701     701     702     703     704     705     706     720     702     703
     704     705     706     707     720     721     722     726     703     704
     705     706     720     704     705     706     720     705     706     707
     708     709     720     721     722     723     724     726     727     706
     707     720     721     722     726     707     708     709     710     718
     720     721     722     723     724     726     708     709     710     711
     712     716     718     719     720     721     722     723     724     725
     726     709     710     718     720     722     723     724     710     711
     712     713     714     716     717     718     719     720     722     723
     724     711     712     713     714     715     716     718     719     722
     712     713     714     718     713     714     715     716     717     718
     714     715     716     715     716     717     718     719     716     717
     718     717     718     719     718     719     719     722       0     721
     722     723     724     725     726     727     728     729     730     722
     723     724     726     727     723     724     725     726     727     724
     725     726     725     726       0     727     728     729     730     731
     728     729     730     731     732     733     734     729     730     731
     730     731     731     732     733     734     735     736     751     732
     733     734     735     736     737     751     752     753     757     733
     734     735     736     751     734     735     736     751     735     736
     737     738     739     751     752     753     754     755     757     758
     736     737     751     752     753     757     737     738     739     740
     749     751     752     753     754     755     757     738     739     740
     741     742     748     749     750     751     752     753     754     755
     756     757     739     740     749     751     753     754     755     740
     741     742     743     744     748     749     750     751     753     754
     755     741     742     743     744     745     748     749     750     753
     742     743     744     749     743     744     745     746     747     748
     749     744     745     748     745     746     747     748     749     750
     746     747     748     749     747     748     748     749     750     750
     753       0     752     753     754     755     756     757     758     759
     760     761     753     754     755     757     758     754     755     756
     757     758     755     756     757     756     757       0     758     759
     760     761     762     759     760     761     762     763     764     765
     760     761     762     761     762     762     763     764     765     766
     767     781     763     764     765     766     767     768     781     782
     783     787     764     765     766     767     781     765     766     767
     781     766     767     768     769     770     781     782     783     784
     785     787     788     767     768     781     782     783     787     768
     769     770     771     779     781     782     783     784     785     787
     769     770     771     772     773     777     779     780     781     782
     783     784     785     786     787     770     771     779     781     783
     784     785     771     772     773     774     775     777     778     779
     780     781     783     784     785     772     773     774     775     776
     777     779     780     783     773     774     775     779     774     775
     776     777     778     779     775     776     777     776     777     778
     779     780     777     778     779     778     779     780     779     780
     780     783       0     782     783     784     785     786     787     788
     789     790     791     783     784     785     787     788     784     785
     786     787     788     785     786     787     786     787       0     788
     789     790     791     792     789     790     791     792     793     794
     795     790     791     792     791     792     792     793     794     795
     796     797     812     793     794     795     796     797     798     812
     813     814     818     794     795     796     797     812     795     796
     797     812     796     797     798     799     800     812     813     814
     815     816     818     797     798     812     813     814     818     798
     799     800     801     810     812     813     814     815     816     818
     799     800     801     802     803     809     810     811     812     813
     814     815     816     817     818     800     801     810     812     814
     815     816     801     802     803     804     805     809     810     811
     812     814     815     816     802     803     804     805     806     809
     810     811     814     803     804     805     810     804     805     806
     807     808     809     810     805     806     809     806     807     808
     809     810     811     807     808     809     810     808     809     809
     810     811     811     814       0     813     814     815     816     817
     818     814     815     816     818     815     816     817     818     816
     817     818     817     818       0       0
%FLAG HBOND_ACOEF
%FORMAT(5E16.8)

%FLAG HBOND_BCOEF
%FORMAT(5E16.8)

%FLAG HBCUT
%FORMAT(5E16.8)

%FLAG AMBER_ATOM_TYPE
%FORMAT(20a4)
P   O2  O2  OS  CJ  H1  H1  CT  H1  OS  CT  H2  N*  CK  H5  NB  CB  C   O   NA  
H   CA  N2  H   H   NC  CB  C7  H1  CT  HC  HC  OS  P   O2  O2  OS  CJ  H1  H1  
CT  H1  OS  CT  H2  N*  C2  H5  NB  CB  CA  N2  H   H   NC  CQ  H5  NC  CB  C7  
H1  CT  HC  HC  OS  P   O2  O2  OS  CJ  H1  H1  CT  H1  OS  CT  H2  N*  CK  H5  
NB  CB  C   O   NA  H   CA  N2  H   H   NC  CB  C7  H1  CT  HC  HC  OS  P   O2  
O2  OS  CJ  H1  H1  CT  H1  OS  CT  H2  N*  C2  H5  NB  CB  CA  N2  H   H   NC  
CQ  H5  NC  CB  C7  H1  CT  HC  HC  OS  P   O2  O2  OS  CJ  H1  H1  CT  H1  OS  
CT  H2  N*  CK  H5  NB  CB  C   O   NA  H   CA  N2  H   H   NC  CB  C7  H1  CT  
HC  HC  OS  P   O2  O2  OS  CJ  H1  H1  CT  H1  OS  CT  H2  N*  CK  H5  NB  CB  
C   O   NA  H   CA  N2  H   H   NC  CB  C7  H1  CT  HC  HC  OS  P   O2  O2  OS  
CJ  H1  H1  CT  H1  OS  CT  H2  N*  C2  H5  NB  CB  CA  N2  H   H   NC  CQ  H5  
NC  CB  C7  H1  CT  HC  HC  OS  P   O2  O2  OS  CJ  H1  H1  CT  H1  OS  CT  H2  
N*  C2  H5  NB  CB  CA  N2  H   H   NC  CQ  H5  NC  CB  C7  H1  CT  HC  HC  OS  
P   O2  O2  OS  CJ  H1  H1  CT  H1  OS  CT  H2  N*  CK  H5  NB  CB  C   O   NA  
H   CA  N2  H   H   NC  CB  C7  H1  CT  HC  HC  OS  P   O2  O2  OS  CJ  H1  H1  
CT  H1  OS  CT  H2  N*  C2  H5  NB  CB  CA  N2  H   H   NC  CQ  H5  NC  CB  C7  
H1  CT  HC  HC  OS  P   O2  O2  OS  CJ  H1  H1  CT  H1  OS  CT  H2  N*  CK  H5  
NB  CB  C   O   NA  H   CA  N2  H   H   NC  CB  C7  H1  CT  HC  HC  OS  P   O2  
O2  OS  CJ  H1  H1  CT  H1  OS  CT  H2  N*  C2  H5  NB  CB  CA  N2  H   H   NC  
CQ  H5  NC  CB  C7  H1  CT  HC  HC  OS  P   O2  O2  OS  CJ  H1  H1  CT  H1  OS  
CT  H2  N*  C2  H5  NB  CB  CA  N2  H   H   NC  CQ  H5  NC  CB  C7  H1  CT  HC  
HC  OS  P   O2  O2  OS  CI  H1  H1  CT  H1  OS  CT  H2  N*  CS  H4  CS  HA  C   
O   NA  H   C   O   CT  H1  CT  H1  OH  HO  OS  P   O2  O2  OS  CI  H1  H1  CT  
H1  OS  CT  H2  N*  CS  H4  CS  HA  C   O   NA  H   C   O   CT  H1  CT  H1  OH  
HO  OS  P   O2  O2  OS  CI  H1  H1  CT  H1  OS  CT  H2  N*  C4  H4  C4  HA  CA  
N2  H   H   NC  C   O   CT  H1  CT  H1  OH  HO  OS  P   O2  O2  OS  CI  H1  H1  
CT  H1  OS  CT  H2  N*  CS  H4  CS  HA  C   O   NA  H   C   O   CT  H1  CT  H1  
OH  HO  OS  P   O2  O2  OS  CI  H1  H1  CT  H1  OS  CT  H2  N*  C4  H4  C4  HA  
CA  N2  H   H   NC  C   O   CT  H1  CT  H1  OH  HO  OS  P   O2  O2  OS  CI  H1  
H1  CT  H1  OS  CT  H2  N*  CS  H4  CS  HA  C   O   NA  H   C   O   CT  H1  CT  
H1  OH  HO  OS  P   O2  O2  OS  CI  H1  H1  CT  H1  OS  CT  H2  N*  CS  H4  CS  
HA  C   O   NA  H   C   O   CT  H1  CT  H1  OH  HO  OS  P   O2  O2  OS  CI  H1  
H1  CT  H1  OS  CT  H2  N*  C4  H4  C4  HA  CA  N2  H   H   NC  C   O   CT  H1  
CT  H1  OH  HO  OS  P   O2  O2  OS  CI  H1  H1  CT  H1  OS  CT  H2  N*  C4  H4  
C4  HA  CA  N2  H   H   NC  C   O   CT  H1  CT  H1  OH  HO  OS  P   O2  O2  OS  
CI  H1  H1  CT  H1  OS  CT  H2  N*  CS  H4  CS  HA  C   O   NA  H   C   O   CT  
H1  CT  H1  OH  HO  OS  P   O2  O2  OS  CI  H1  H1  CT  H1  OS  CT  H2  N*  C4  
H4  C4  HA  CA  N2  H   H   NC  C   O   CT  H1  CT  H1  OH  HO  OS  P   O2  O2  
OS  CI  H1  H1  CT  H1  OS  CT  H2  N*  CS  H4  CS  HA  C   O   NA  H   C   O   
CT  H1  CT  H1  OH  HO  OS  P   O2  O2  OS  CI  H1  H1  CT  H1  OS  CT  H2  N*  
C4  H4  C4  HA  CA  N2  H   H   NC  C   O   CT  H1  CT  H1  OH  HO  OS  
%FLAG TREE_CHAIN_CLASSIFICATION
%FORMAT(20a4)
M   E   E   M   M   E   E   M   E   S   3   E   B   S   E   E   B   B   E   B   
E   S   B   E   E   E   B   M   E   B   E   E   M   M   E   E   M   M   E   E   
M   E   S   3   E   B   S   E   E   B   B   B   E   E   S   S   E   E   B   M   
E   B   E   E   M   M   E   E   M   M   E   E   M   E   S   3   E   B   S   E   
E   B   B   E   B   E   S   B   E   E   E   B   M   E   B   E   E   M   M   E   
E   M   M   E   E   M   E   S   3   E   B   S   E   E   B   B   B   E   E   S   
S   E   E   B   M   E   B   E   E   M   M   E   E   M   M   E   E   M   E   S   
3   E   B   S   E   E   B   B   E   B   E   S   B   E   E   E   B   M   E   B   
E   E   M   M   E   E   M   M   E   E   M   E   S   3   E   B   S   E   E   B   
B   E   B   E   S   B   E   E   E   B   M   E   B   E   E   M   M   E   E   M   
M   E   E   M   E   S   3   E   B   S   E   E   B   B   B   E   E   S   S   E   
E   B   M   E   B   E   E   M   M   E   E   M   M   E   E   M   E   S   3   E   
B   S   E   E   B   B   B   E   E   S   S   E   E   B   M   E   B   E   E   M   
M   E   E   M   M   E   E   M   E   S   3   E   B   S   E   E   B   B   E   B   
E   S   B   E   E   E   B   M   E   B   E   E   M   M   E   E   M   M   E   E   
M   E   S   3   E   B   S   E   E   B   B   B   E   E   S   S   E   E   B   M   
E   B   E   E   M   M   E   E   M   M   E   E   M   E   S   3   E   B   S   E   
E   B   B   E   B   E   S   B   E   E   E   B   M   E   B   E   E   M   M   E   
E   M   M   E   E   M   E   S   3   E   B   S   E   E   B   B   B   E   E   S   
S   E   E   B   M   E   B   E   E   M   M   E   E   M   M   E   E   M   E   S   
3   E   B   S   E   E   B   B   B   E   E   S   S   E   E   B   M   E   B   E   
E   M   M   E   E   M   M   E   E   M   E   S   3   E   B   S   E   S   E   B   
E   B   E   B   E   M   E   B   E   S   E   M   M   E   E   M   M   E   E   M   
E   S   3   E   B   S   E   S   E   B   E   B   E   B   E   M   E   B   E   S   
E   M   M   E   E   M   M   E   E   M   E   S   3   E   B   S   E   S   E   B   
B   E   E   S   B   E   M   E   B   E   S   E   M   M   E   E   M   M   E   E   
M   E   S   3   E   B   S   E   S   E   B   E   B   E   B   E   M   E   B   E   
S   E   M   M   E   E   M   M   E   E   M   E   S   3   E   B   S   E   S   E   
B   B   E   E   S   B   E   M   E   B   E   S   E   M   M   E   E   M   M   E   
E   M   E   S   3   E   B   S   E   S   E   B   E   B   E   B   E   M   E   B   
E   S   E   M   M   E   E   M   M   E   E   M   E   S   3   E   B   S   E   S   
E   B   E   B   E   B   E   M   E   B   E   S   E   M   M   E   E   M   M   E   
E   M   E   S   3   E   B   S   E   S   E   B   B   E   E   S   B   E   M   E   
B   E   S   E   M   M   E   E   M   M   E   E   M   E   S   3   E   B   S   E   
S   E   B   B   E   E   S   B   E   M   E   B   E   S   E   M   M   E   E   M   
M   E   E   M   E   S   3   E   B   S   E   S   E   B   E   B   E   B   E   M   
E   B   E   S   E   M   M   E   E   M   M   E   E   M   E   S   3   E   B   S   
E   S   E   B   B   E   E   S   B   E   M   E   B   E   S   E   M   M   E   E   
M   M   E   E   M   E   S   3   E   B   S   E   S   E   B   E   B   E   B   E   
M   E   B   E   S   E   M   M   E   E   M   M   E   E   M   E   S   3   E   B   
S   E   S   E   B   B   E   E   S   B   E   M   E   B   E   S   E   M   
%FLAG JOIN_ARRAY
%FORMAT(10I8)
       0       0       0       0       0       0       0       0       0       0
       0       0       0       0       0       0       0       0       0       0
       0       0       0       0       0       0       0       0       0       0
       0       0       0       0       0       0       0       0       0       0
       0       0       0       0       0       0       0       0       0       0
       0       0       0       0       0       0       0       0       0       0
       0       0       0       0       0       0       0       0       0       0
       0       0       0       0       0       0       0       0       0       0
       0       0       0       0       0       0       0       0       0       0
       0       0       0       0       0       0       0       0       0       0
       0       0       0       0       0       0       0       0       0       0
       0       0       0       0       0       0       0       0       0       0
       0       0       0       0       0       0       0       0       0       0
       0       0       0       0       0       0       0       0       0       0
       0       0       0       0       0       0       0       0       0       0
       0       0       0       0       0       0       0       0       0       0
       0       0       0       0       0       0       0       0       0       0
       0       0       0       0       0       0       0       0       0       0
       0       0       0       0       0       0       0       0       0       0
       0       0       0       0       0       0       0       0       0       0
       0       0       0       0       0       0       0       0       0       0
       0       0       0       0       0       0       0       0       0       0
       0       0       0       0       0       0       0       0       0       0
       0       0       0       0       0       0       0       0       0       0
       0       0       0       0       0       0       0       0       0       0
       0       0       0       0       0       0       0       0       0       0
       0       0       0       0       0       0       0       0       0       0
       0       0       0       0       0       0       0       0       0       0
       0       0       0       0       0       0       0       0       0       0
       0       0       0       0       0       0       0       0       0       0
       0       0       0       0       0       0       0       0       0       0
       0       0       0       0       0       0       0       0       0       0
       0       0       0       0       0       0       0       0       0       0
       0       0       0       0       0       0       0       0       0       0
       0       0       0       0       0       0       0       0       0       0
       0       0       0       0       0       0       0       0       0       0
       0       0       0       0       0       0       0       0       0       0
       0       0       0       0       0       0       0       0       0       0
       0       0       0       0       0       0       0       0       0       0
       0       0       0       0       0       0       0       0       0       0
       0       0       0       0       0       0       0       0       0       0
       0       0       0       0       0       0       0       0       0       0
       0       0       0       0       0       0       0       0       0       0
       0       0       0       0       0       0       0       0       0       0
       0       0       0       0       0       0       0       0       0       0
       0       0       0       0       0       0       0       0       0       0
       0       0       0       0       0       0       0       0       0       0
       0       0       0       0       0       0       0       0       0       0
       0       0       0       0       0       0       0       0       0       0
       0       0       0       0       0       0       0       0       0       0
       0       0       0       0       0       0       0       0       0       0
       0       0       0       0       0       0       0       0       0       0
       0       0       0       0       0       0       0       0       0       0
       0       0       0       0       0       0       0       0       0       0
       0       0       0       0       0       0       0       0       0       0
       0       0       0       0       0       0       0       0       0       0
       0       0       0       0       0       0       0       0       0       0
       0       0       0       0       0       0       0       0       0       0
       0       0       0       0       0       0       0       0       0       0
       0       0       0       0       0       0       0       0       0       0
       0       0       0       0       0       0       0       0       0       0
       0       0       0       0       0       0       0       0       0       0
       0       0       0       0       0       0       0       0       0       0
       0       0       0       0       0       0       0       0       0       0
       0       0       0       0       0       0       0       0       0       0
       0       0       0       0       0       0       0       0       0       0
       0       0       0       0       0       0       0       0       0       0
       0       0       0       0       0       0       0       0       0       0
       0       0       0       0       0       0       0       0       0       0
       0       0       0       0       0       0       0       0       0       0
       0       0       0       0       0       0       0       0       0       0
       0       0       0       0       0       0       0       0       0       0
       0       0       0       0       0       0       0       0       0       0
       0       0       0       0       0       0       0       0       0       0
       0       0       0       0       0       0       0       0       0       0
       0       0       0       0       0       0       0       0       0       0
       0       0       0       0       0       0       0       0       0       0
       0       0       0       0       0       0       0       0       0       0
       0       0       0       0       0       0       0       0       0       0
       0       0       0       0       0       0       0       0       0       0
       0       0       0       0       0       0       0       0       0       0
       0       0       0       0       0       0       0       0
%FLAG IROTAT
%FORMAT(10I8)
       0       0       0       0       0       0       0       0       0       0
       0       0       0       0       0       0       0       0       0       0
       0       0       0       0       0       0       0       0       0       0
       0       0       0       0       0       0       0       0       0       0
       0       0       0       0       0       0       0       0       0       0
       0       0       0       0       0       0       0       0       0       0
       0       0       0       0       0       0       0       0       0       0
       0       0       0       0       0       0       0       0       0       0
       0       0       0       0       0       0       0       0       0       0
       0       0       0       0       0       0       0       0       0       0
       0       0       0       0       0       0       0       0       0       0
       0       0       0       0       0       0       0       0       0       0
       0       0       0       0       0       0       0       0       0       0
       0       0       0       0       0       0       0       0       0       0
       0       0       0       0       0       0       0       0       0       0
       0       0       0       0       0       0       0       0       0       0
       0       0       0       0       0       0       0       0       0       0
       0       0       0       0       0       0       0       0       0       0
       0       0       0       0       0       0       0       0       0       0
       0       0       0       0       0       0       0       0       0       0
       0       0       0       0       0       0       0       0       0       0
       0       0       0       0       0       0       0       0       0       0
       0       0       0       0       0       0       0       0       0       0
       0       0       0       0       0       0       0       0       0       0
       0       0       0       0       0       0       0       0       0       0
       0       0       0       0       0       0       0       0       0       0
       0       0       0       0       0       0       0       0       0       0
       0       0       0       0       0       0       0       0       0       0
       0       0       0       0       0       0       0       0       0       0
       0       0       0       0       0       0       0       0       0       0
       0       0       0       0       0       0       0       0       0       0
       0       0       0       0       0       0       0       0       0       0
       0       0       0       0       0       0       0       0       0       0
       0       0       0       0       0       0       0       0       0       0
       0       0       0       0       0       0       0       0       0       0
       0       0       0       0       0       0       0       0       0       0
       0       0       0       0       0       0       0       0       0       0
       0       0       0       0       0       0       0       0       0       0
       0       0       0       0       0       0       0       0       0       0
       0       0       0       0       0       0       0       0       0       0
       0       0       0       0       0       0       0       0       0       0
       0       0       0       0       0       0       0       0       0       0
       0       0       0       0       0       0       0       0       0       0
       0       0       0       0       0       0       0       0       0       0
       0       0       0       0       0       0       0       0       0       0
       0       0       0       0       0       0       0       0       0       0
       0       0       0       0       0       0       0       0       0       0
       0       0       0       0       0       0       0       0       0       0
       0       0       0       0       0       0       0       0       0       0
       0       0       0       0       0       0       0       0       0       0
       0       0       0       0       0       0       0       0       0       0
       0       0       0       0       0       0       0       0       0       0
       0       0       0       0       0       0       0       0       0       0
       0       0       0       0       0       0       0       0       0       0
       0       0       0       0       0       0       0       0       0       0
       0       0       0       0       0       0       0       0       0       0
       0       0       0       0       0       0       0       0       0       0
       0       0       0       0       0       0       0       0       0       0
       0       0       0       0       0       0       0       0       0       0
       0       0       0       0       0       0       0       0       0       0
       0       0       0       0       0       0       0       0       0       0
       0       0       0       0       0       0       0       0       0       0
       0       0       0       0       0       0       0       0       0       0
       0       0       0       0       0       0       0       0       0       0
       0       0       0       0       0       0       0       0       0       0
       0       0       0       0       0       0       0       0       0       0
       0       0       0       0       0       0       0       0       0       0
       0       0       0       0       0       0       0       0       0       0
       0       0       0       0       0       0       0       0       0       0
       0       0       0       0       0       0       0       0       0       0
       0       0       0       0       0       0       0       0       0       0
       0       0       0       0       0       0       0       0       0       0
       0       0       0       0       0       0       0       0       0       0
       0       0       0       0       0       0       0       0       0       0
       0       0       0       0       0       0       0       0       0       0
       0       0       0       0       0       0       0       0       0       0
       0       0       0       0       0       0       0       0       0       0
       0       0       0       0       0       0       0       0       0       0
       0       0       0       0       0       0       0       0       0       0
       0       0       0       0       0       0       0       0       0       0
       0       0       0       0       0       0       0       0       0       0
       0       0       0       0       0       0       0       0
%FLAG RADIUS_SET
%FORMAT(1a80)
modified Bondi radii (mbondi)                                                   
%FLAG RADII
%FORMAT(5E16.8)
  1.85000000E+00  1.50000000E+00  1.50000000E+00  1.50000000E+00  1.70000000E+00
  1.30000000E+00  1.30000000E+00  1.70000000E+00  1.30000000E+00  1.50000000E+00
  1.70000000E+00  1.30000000E+00  1.55000000E+00  1.70000000E+00  1.30000000E+00
  1.55000000E+00  1.70000000E+00  1.70000000E+00  1.50000000E+00  1.55000000E+00
  1.30000000E+00  1.70000000E+00  1.55000000E+00  1.30000000E+00  1.30000000E+00
  1.55000000E+00  1.70000000E+00  1.70000000E+00  1.30000000E+00  1.70000000E+00
  1.30000000E+00  1.30000000E+00  1.50000000E+00  1.85000000E+00  1.50000000E+00
  1.50000000E+00  1.50000000E+00  1.70000000E+00  1.30000000E+00  1.30000000E+00
  1.70000000E+00  1.30000000E+00  1.50000000E+00  1.70000000E+00  1.30000000E+00
  1.55000000E+00  1.70000000E+00  1.30000000E+00  1.55000000E+00  1.70000000E+00
  1.70000000E+00  1.55000000E+00  1.30000000E+00  1.30000000E+00  1.55000000E+00
  1.70000000E+00  1.30000000E+00  1.55000000E+00  1.70000000E+00  1.70000000E+00
  1.30000000E+00  1.70000000E+00  1.30000000E+00  1.30000000E+00  1.50000000E+00
  1.85000000E+00  1.50000000E+00  1.50000000E+00  1.50000000E+00  1.70000000E+00
  1.30000000E+00  1.30000000E+00  1.70000000E+00  1.30000000E+00  1.50000000E+00
  1.70000000E+00  1.30000000E+00  1.55000000E+00  1.70000000E+00  1.30000000E+00
  1.55000000E+00  1.70000000E+00  1.70000000E+00  1.50000000E+00  1.55000000E+00
  1.30000000E+00  1.70000000E+00  1.55000000E+00  1.30000000E+00  1.30000000E+00
  1.55000000E+00  1.70000000E+00  1.70000000E+00  1.30000000E+00  1.70000000E+00
  1.30000000E+00  1.30000000E+00  1.50000000E+00  1.85000000E+00  1.50000000E+00
  1.50000000E+00  1.50000000E+00  1.70000000E+00  1.30000000E+00  1.30000000E+00
  1.70000000E+00  1.30000000E+00  1.50000000E+00  1.70000000E+00  1.30000000E+00
  1.55000000E+00  1.70000000E+00  1.30000000E+00  1.55000000E+00  1.70000000E+00
  1.70000000E+00  1.55000000E+00  1.30000000E+00  1.30000000E+00  1.55000000E+00
  1.70000000E+00  1.30000000E+00  1.55000000E+00  1.70000000E+00  1.70000000E+00
  1.30000000E+00  1.70000000E+00  1.30000000E+00  1.30000000E+00  1.50000000E+00
  1.85000000E+00  1.50000000E+00  1.50000000E+00  1.50000000E+00  1.70000000E+00
  1.30000000E+00  1.30000000E+00  1.70000000E+00  1.30000000E+00  1.50000000E+00
  1.70000000E+00  1.30000000E+00  1.55000000E+00  1.70000000E+00  1.30000000E+00
  1.55000000E+00  1.70000000E+00  1.70000000E+00  1.50000000E+00  1.55000000E+00
  1.30000000E+00  1.70000000E+00  1.55000000E+00  1.30000000E+00  1.30000000E+00
  1.55000000E+00  1.70000000E+00  1.70000000E+00  1.30000000E+00  1.70000000E+00
  1.30000000E+00  1.30000000E+00  1.50000000E+00  1.85000000E+00  1.50000000E+00
  1.50000000E+00  1.50000000E+00  1.70000000E+00  1.30000000E+00  1.30000000E+00
  1.70000000E+00  1.30000000E+00  1.50000000E+00  1.70000000E+00  1.30000000E+00
  1.55000000E+00  1.70000000E+00  1.30000000E+00  1.55000000E+00  1.70000000E+00
  1.70000000E+00  1.50000000E+00  1.55000000E+00  1.30000000E+00  1.70000000E+00
  1.55000000E+00  1.30000000E+00  1.30000000E+00  1.55000000E+00  1.70000000E+00
  1.70000000E+00  1.30000000E+00  1.70000000E+00  1.30000000E+00  1.30000000E+00
  1.50000000E+00  1.85000000E+00  1.50000000E+00  1.50000000E+00  1.50000000E+00
  1.70000000E+00  1.30000000E+00  1.30000000E+00  1.70000000E+00  1.30000000E+00
  1.50000000E+00  1.70000000E+00  1.30000000E+00  1.55000000E+00  1.70000000E+00
  1.30000000E+00  1.55000000E+00  1.70000000E+00  1.70000000E+00  1.55000000E+00
  1.30000000E+00  1.30000000E+00  1.55000000E+00  1.70000000E+00  1.30000000E+00
  1.55000000E+00  1.70000000E+00  1.70000000E+00  1.30000000E+00  1.70000000E+00
  1.30000000E+00  1.30000000E+00  1.50000000E+00  1.85000000E+00  1.50000000E+00
  1.50000000E+00  1.50000000E+00  1.70000000E+00  1.30000000E+00  1.30000000E+00
  1.70000000E+00  1.30000000E+00  1.50000000E+00  1.70000000E+00  1.30000000E+00
  1.55000000E+00  1.70000000E+00  1.30000000E+00  1.55000000E+00  1.70000000E+00
  1.70000000E+00  1.55000000E+00  1.30000000E+00  1.30000000E+00  1.55000000E+00
  1.70000000E+00  1.30000000E+00  1.55000000E+00  1.70000000E+00  1.70000000E+00
  1.30000000E+00  1.70000000E+00  1.30000000E+00  1.30000000E+00  1.50000000E+00
  1.85000000E+00  1.50000000E+00  1.50000000E+00  1.50000000E+00  1.70000000E+00
  1.30000000E+00  1.30000000E+00  1.70000000E+00  1.30000000E+00  1.50000000E+00
  1.70000000E+00  1.30000000E+00  1.55000000E+00  1.70000000E+00  1.30000000E+00
  1.55000000E+00  1.70000000E+00  1.70000000E+00  1.50000000E+00  1.55000000E+00
  1.30000000E+00  1.70000000E+00  1.55000000E+00  1.30000000E+00  1.30000000E+00
  1.55000000E+00  1.70000000E+00  1.70000000E+00  1.30000000E+00  1.70000000E+00
  1.30000000E+00  1.30000000E+00  1.50000000E+00  1.85000000E+00  1.50000000E+00
  1.50000000E+00  1.50000000E+00  1.70000000E+00  1.30000000E+00  1.30000000E+00
  1.70000000E+00  1.30000000E+00  1.50000000E+00  1.70000000E+00  1.30000000E+00
  1.55000000E+00  1.70000000E+00  1.30000000E+00  1.55000000E+00  1.70000000E+00
  1.70000000E+00  1.55000000E+00  1.30000000E+00  1.30000000E+00  1.55000000E+00
  1.70000000E+00  1.30000000E+00  1.55000000E+00  1.70000000E+00  1.70000000E+00
  1.30000000E+00  1.70000000E+00  1.30000000E+00  1.30000000E+00  1.50000000E+00
  1.85000000E+00  1.50000000E+00  1.50000000E+00  1.50000000E+00  1.70000000E+00
  1.30000000E+00  1.30000000E+00  1.70000000E+00  1.30000000E+00  1.50000000E+00
  1.70000000E+00  1.30000000E+00  1.55000000E+00  1.70000000E+00  1.30000000E+00
  1.55000000E+00  1.70000000E+00  1.70000000E+00  1.50000000E+00  1.55000000E+00
  1.30000000E+00  1.70000000E+00  1.55000000E+00  1.30000000E+00  1.30000000E+00
  1.55000000E+00  1.70000000E+00  1.70000000E+00  1.30000000E+00  1.70000000E+00
  1.30000000E+00  1.30000000E+00  1.50000000E+00  1.85000000E+00  1.50000000E+00
  1.50000000E+00  1.50000000E+00  1.70000000E+00  1.30000000E+00  1.30000000E+00
  1.70000000E+00  1.30000000E+00  1.50000000E+00  1.70000000E+00  1.30000000E+00
  1.55000000E+00  1.70000000E+00  1.30000000E+00  1.55000000E+00  1.70000000E+00
  1.70000000E+00  1.55000000E+00  1.30000000E+00  1.30000000E+00  1.55000000E+00
  1.70000000E+00  1.30000000E+00  1.55000000E+00  1.70000000E+00  1.70000000E+00
  1.30000000E+00  1.70000000E+00  1.30000000E+00  1.30000000E+00  1.50000000E+00
  1.85000000E+00  1.50000000E+00  1.50000000E+00  1.50000000E+00  1.70000000E+00
  1.30000000E+00  1.30000000E+00  1.70000000E+00  1.30000000E+00  1.50000000E+00
  1.70000000E+00  1.30000000E+00  1.55000000E+00  1.70000000E+00  1.30000000E+00
  1.55000000E+00  1.70000000E+00  1.70000000E+00  1.55000000E+00  1.30000000E+00
  1.30000000E+00  1.55000000E+00  1.70000000E+00  1.30000000E+00  1.55000000E+00
  1.70000000E+00  1.70000000E+00  1.30000000E+00  1.70000000E+00  1.30000000E+00
  1.30000000E+00  1.50000000E+00  1.85000000E+00  1.50000000E+00  1.50000000E+00
  1.50000000E+00  1.70000000E+00  1.30000000E+00  1.30000000E+00  1.70000000E+00
  1.30000000E+00  1.50000000E+00  1.70000000E+00  1.30000000E+00  1.55000000E+00
  1.70000000E+00  1.30000000E+00  1.70000000E+00  1.30000000E+00  1.70000000E+00
  1.50000000E+00  1.55000000E+00  1.30000000E+00  1.70000000E+00  1.50000000E+00
  1.70000000E+00  1.30000000E+00  1.70000000E+00  1.30000000E+00  1.50000000E+00
  8.00000000E-01  1.50000000E+00  1.85000000E+00  1.50000000E+00  1.50000000E+00
  1.50000000E+00  1.70000000E+00  1.30000000E+00  1.30000000E+00  1.70000000E+00
  1.30000000E+00  1.50000000E+00  1.70000000E+00  1.30000000E+00  1.55000000E+00
  1.70000000E+00  1.30000000E+00  1.70000000E+00  1.30000000E+00  1.70000000E+00
  1.50000000E+00  1.55000000E+00  1.30000000E+00  1.70000000E+00  1.50000000E+00
  1.70000000E+00  1.30000000E+00  1.70000000E+00  1.30000000E+00  1.50000000E+00
  8.00000000E-01  1.50000000E+00  1.85000000E+00  1.50000000E+00  1.50000000E+00
  1.50000000E+00  1.70000000E+00  1.30000000E+00  1.30000000E+00  1.70000000E+00
  1.30000000E+00  1.50000000E+00  1.70000000E+00  1.30000000E+00  1.55000000E+00
  1.70000000E+00  1.30000000E+00  1.70000000E+00  1.30000000E+00  1.70000000E+00
  1.55000000E+00  1.30000000E+00  1.30000000E+00  1.55000000E+00  1.70000000E+00
  1.50000000E+00  1.70000000E+00  1.30000000E+00  1.70000000E+00  1.30000000E+00
  1.50000000E+00  8.00000000E-01  1.50000000E+00  1.85000000E+00  1.50000000E+00
  1.50000000E+00  1.50000000E+00  1.70000000E+00  1.30000000E+00  1.30000000E+00
  1.70000000E+00  1.30000000E+00  1.50000000E+00  1.70000000E+00  1.30000000E+00
  1.55000000E+00  1.70000000E+00  1.30000000E+00  1.70000000E+00  1.30000000E+00
  1.70000000E+00  1.50000000E+00  1.55000000E+00  1.30000000E+00  1.70000000E+00
  1.50000000E+00  1.70000000E+00  1.30000000E+00  1.70000000E+00  1.30000000E+00
  1.50000000E+00  8.00000000E-01  1.50000000E+00  1.85000000E+00  1.50000000E+00
  1.50000000E+00  1.50000000E+00  1.70000000E+00  1.30000000E+00  1.30000000E+00
  1.70000000E+00  1.30000000E+00  1.50000000E+00  1.70000000E+00  1.30000000E+00
  1.55000000E+00  1.70000000E+00  1.30000000E+00  1.70000000E+00  1.30000000E+00
  1.70000000E+00  1.55000000E+00  1.30000000E+00  1.30000000E+00  1.55000000E+00
  1.70000000E+00  1.50000000E+00  1.70000000E+00  1.30000000E+00  1.70000000E+00
  1.30000000E+00  1.50000000E+00  8.00000000E-01  1.50000000E+00  1.85000000E+00
  1.50000000E+00  1.50000000E+00  1.50000000E+00  1.70000000E+00  1.30000000E+00
  1.30000000E+00  1.70000000E+00  1.30000000E+00  1.50000000E+00  1.70000000E+00
  1.30000000E+00  1.55000000E+00  1.70000000E+00  1.30000000E+00  1.70000000E+00
  1.30000000E+00  1.70000000E+00  1.50000000E+00  1.55000000E+00  1.30000000E+00
  1.70000000E+00  1.50000000E+00  1.70000000E+00  1.30000000E+00  1.70000000E+00
  1.30000000E+00  1.50000000E+00  8.00000000E-01  1.50000000E+00  1.85000000E+00
  1.50000000E+00  1.50000000E+00  1.50000000E+00  1.70000000E+00  1.30000000E+00
  1.30000000E+00  1.70000000E+00  1.30000000E+00  1.50000000E+00  1.70000000E+00
  1.30000000E+00  1.55000000E+00  1.70000000E+00  1.30000000E+00  1.70000000E+00
  1.30000000E+00  1.70000000E+00  1.50000000E+00  1.55000000E+00  1.30000000E+00
  1.70000000E+00  1.50000000E+00  1.70000000E+00  1.30000000E+00  1.70000000E+00
  1.30000000E+00  1.50000000E+00  8.00000000E-01  1.50000000E+00  1.85000000E+00
  1.50000000E+00  1.50000000E+00  1.50000000E+00  1.70000000E+00  1.30000000E+00
  1.30000000E+00  1.70000000E+00  1.30000000E+00  1.50000000E+00  1.70000000E+00
  1.30000000E+00  1.55000000E+00  1.70000000E+00  1.30000000E+00  1.70000000E+00
  1.30000000E+00  1.70000000E+00  1.55000000E+00  1.30000000E+00  1.30000000E+00
  1.55000000E+00  1.70000000E+00  1.50000000E+00  1.70000000E+00  1.30000000E+00
  1.70000000E+00  1.30000000E+00  1.50000000E+00  8.00000000E-01  1.50000000E+00
  1.85000000E+00  1.50000000E+00  1.50000000E+00  1.50000000E+00  1.70000000E+00
  1.30000000E+00  1.30000000E+00  1.70000000E+00  1.30000000E+00  1.50000000E+00
  1.70000000E+00  1.30000000E+00  1.55000000E+00  1.70000000E+00  1.30000000E+00
  1.70000000E+00  1.30000000E+00  1.70000000E+00  1.55000000E+00  1.30000000E+00
  1.30000000E+00  1.55000000E+00  1.70000000E+00  1.50000000E+00  1.70000000E+00
  1.30000000E+00  1.70000000E+00  1.30000000E+00  1.50000000E+00  8.00000000E-01
  1.50000000E+00  1.85000000E+00  1.50000000E+00  1.50000000E+00  1.50000000E+00
  1.70000000E+00  1.30000000E+00  1.30000000E+00  1.70000000E+00  1.30000000E+00
  1.50000000E+00  1.70000000E+00  1.30000000E+00  1.55000000E+00  1.70000000E+00
  1.30000000E+00  1.70000000E+00  1.30000000E+00  1.70000000E+00  1.50000000E+00
  1.55000000E+00  1.30000000E+00  1.70000000E+00  1.50000000E+00  1.70000000E+00
  1.30000000E+00  1.70000000E+00  1.30000000E+00  1.50000000E+00  8.00000000E-01
  1.50000000E+00  1.85000000E+00  1.50000000E+00  1.50000000E+00  1.50000000E+00
  1.70000000E+00  1.30000000E+00  1.30000000E+00  1.70000000E+00  1.30000000E+00
  1.50000000E+00  1.70000000E+00  1.30000000E+00  1.55000000E+00  1.70000000E+00
  1.30000000E+00  1.70000000E+00  1.30000000E+00  1.70000000E+00  1.55000000E+00
  1.30000000E+00  1.30000000E+00  1.55000000E+00  1.70000000E+00  1.50000000E+00
  1.70000000E+00  1.30000000E+00  1.70000000E+00  1.30000000E+00  1.50000000E+00
  8.00000000E-01  1.50000000E+00  1.85000000E+00  1.50000000E+00  1.50000000E+00
  1.50000000E+00  1.70000000E+00  1.30000000E+00  1.30000000E+00  1.70000000E+00
  1.30000000E+00  1.50000000E+00  1.70000000E+00  1.30000000E+00  1.55000000E+00
  1.70000000E+00  1.30000000E+00  1.70000000E+00  1.30000000E+00  1.70000000E+00
  1.50000000E+00  1.55000000E+00  1.30000000E+00  1.70000000E+00  1.50000000E+00
  1.70000000E+00  1.30000000E+00  1.70000000E+00  1.30000000E+00  1.50000000E+00
  8.00000000E-01  1.50000000E+00  1.85000000E+00  1.50000000E+00  1.50000000E+00
  1.50000000E+00  1.70000000E+00  1.30000000E+00  1.30000000E+00  1.70000000E+00
  1.30000000E+00  1.50000000E+00  1.70000000E+00  1.30000000E+00  1.55000000E+00
  1.70000000E+00  1.30000000E+00  1.70000000E+00  1.30000000E+00  1.70000000E+00
  1.55000000E+00  1.30000000E+00  1.30000000E+00  1.55000000E+00  1.70000000E+00
  1.50000000E+00  1.70000000E+00  1.30000000E+00  1.70000000E+00  1.30000000E+00
  1.50000000E+00  8.00000000E-01  1.50000000E+00
%FLAG SCREEN
%FORMAT(5E16.8)
  8.60000000E-01  8.50000000E-01  8.50000000E-01  8.50000000E-01  7.20000000E-01
  8.50000000E-01  8.50000000E-01  7.20000000E-01  8.50000000E-01  8.50000000E-01
  7.20000000E-01  8.50000000E-01  7.90000000E-01  7.20000000E-01  8.50000000E-01
  7.90000000E-01  7.20000000E-01  7.20000000E-01  8.50000000E-01  7.90000000E-01
  8.50000000E-01  7.20000000E-01  7.90000000E-01  8.50000000E-01  8.50000000E-01
  7.90000000E-01  7.20000000E-01  7.20000000E-01  8.50000000E-01  7.20000000E-01
  8.50000000E-01  8.50000000E-01  8.50000000E-01  8.60000000E-01  8.50000000E-01
  8.50000000E-01  8.50000000E-01  7.20000000E-01  8.50000000E-01  8.50000000E-01
  7.20000000E-01  8.50000000E-01  8.50000000E-01  7.20000000E-01  8.50000000E-01
  7.90000000E-01  7.20000000E-01  8.50000000E-01  7.90000000E-01  7.20000000E-01
  7.20000000E-01  7.90000000E-01  8.50000000E-01  8.50000000E-01  7.90000000E-01
  7.20000000E-01  8.50000000E-01  7.90000000E-01  7.20000000E-01  7.20000000E-01
  8.50000000E-01  7.20000000E-01  8.50000000E-01  8.50000000E-01  8.50000000E-01
  8.60000000E-01  8.50000000E-01  8.50000000E-01  8.50000000E-01  7.20000000E-01
  8.50000000E-01  8.50000000E-01  7.20000000E-01  8.50000000E-01  8.50000000E-01
  7.20000000E-01  8.50000000E-01  7.90000000E-01  7.20000000E-01  8.50000000E-01
  7.90000000E-01  7.20000000E-01  7.20000000E-01  8.50000000E-01  7.90000000E-01
  8.50000000E-01  7.20000000E-01  7.90000000E-01  8.50000000E-01  8.50000000E-01
  7.90000000E-01  7.20000000E-01  7.20000000E-01  8.50000000E-01  7.20000000E-01
  8.50000000E-01  8.50000000E-01  8.50000000E-01  8.60000000E-01  8.50000000E-01
  8.50000000E-01  8.50000000E-01  7.20000000E-01  8.50000000E-01  8.50000000E-01
  7.20000000E-01  8.50000000E-01  8.50000000E-01  7.20000000E-01  8.50000000E-01
  7.90000000E-01  7.20000000E-01  8.50000000E-01  7.90000000E-01  7.20000000E-01
  7.20000000E-01  7.90000000E-01  8.50000000E-01  8.50000000E-01  7.90000000E-01
  7.20000000E-01  8.50000000E-01  7.90000000E-01  7.20000000E-01  7.20000000E-01
  8.50000000E-01  7.20000000E-01  8.50000000E-01  8.50000000E-01  8.50000000E-01
  8.60000000E-01  8.50000000E-01  8.50000000E-01  8.50000000E-01  7.20000000E-01
  8.50000000E-01  8.50000000E-01  7.20000000E-01  8.50000000E-01  8.50000000E-01
  7.20000000E-01  8.50000000E-01  7.90000000E-01  7.20000000E-01  8.50000000E-01
  7.90000000E-01  7.20000000E-01  7.20000000E-01  8.50000000E-01  7.90000000E-01
  8.50000000E-01  7.20000000E-01  7.90000000E-01  8.50000000E-01  8.50000000E-01
  7.90000000E-01  7.20000000E-01  7.20000000E-01  8.50000000E-01  7.20000000E-01
  8.50000000E-01  8.50000000E-01  8.50000000E-01  8.60000000E-01  8.50000000E-01
  8.50000000E-01  8.50000000E-01  7.20000000E-01  8.50000000E-01  8.50000000E-01
  7.20000000E-01  8.50000000E-01  8.50000000E-01  7.20000000E-01  8.50000000E-01
  7.90000000E-01  7.20000000E-01  8.50000000E-01  7.90000000E-01  7.20000000E-01
  7.20000000E-01  8.50000000E-01  7.90000000E-01  8.50000000E-01  7.20000000E-01
  7.90000000E-01  8.50000000E-01  8.50000000E-01  7.90000000E-01  7.20000000E-01
  7.20000000E-01  8.50000000E-01  7.20000000E-01  8.50000000E-01  8.50000000E-01
  8.50000000E-01  8.60000000E-01  8.50000000E-01  8.50000000E-01  8.50000000E-01
  7.20000000E-01  8.50000000E-01  8.50000000E-01  7.20000000E-01  8.50000000E-01
  8.50000000E-01  7.20000000E-01  8.50000000E-01  7.90000000E-01  7.20000000E-01
  8.50000000E-01  7.90000000E-01  7.20000000E-01  7.20000000E-01  7.90000000E-01
  8.50000000E-01  8.50000000E-01  7.90000000E-01  7.20000000E-01  8.50000000E-01
  7.90000000E-01  7.20000000E-01  7.20000000E-01  8.50000000E-01  7.20000000E-01
  8.50000000E-01  8.50000000E-01  8.50000000E-01  8.60000000E-01  8.50000000E-01
  8.50000000E-01  8.50000000E-01  7.20000000E-01  8.50000000E-01  8.50000000E-01
  7.20000000E-01  8.50000000E-01  8.50000000E-01  7.20000000E-01  8.50000000E-01
  7.90000000E-01  7.20000000E-01  8.50000000E-01  7.90000000E-01  7.20000000E-01
  7.20000000E-01  7.90000000E-01  8.50000000E-01  8.50000000E-01  7.90000000E-01
  7.20000000E-01  8.50000000E-01  7.90000000E-01  7.20000000E-01  7.20000000E-01
  8.50000000E-01  7.20000000E-01  8.50000000E-01  8.50000000E-01  8.50000000E-01
  8.60000000E-01  8.50000000E-01  8.50000000E-01  8.50000000E-01  7.20000000E-01
  8.50000000E-01  8.50000000E-01  7.20000000E-01  8.50000000E-01  8.50000000E-01
  7.20000000E-01  8.50000000E-01  7.90000000E-01  7.20000000E-01  8.50000000E-01
  7.90000000E-01  7.20000000E-01  7.20000000E-01  8.50000000E-01  7.90000000E-01
  8.50000000E-01  7.20000000E-01  7.90000000E-01  8.50000000E-01  8.50000000E-01
  7.90000000E-01  7.20000000E-01  7.20000000E-01  8.50000000E-01  7.20000000E-01
  8.50000000E-01  8.50000000E-01  8.50000000E-01  8.60000000E-01  8.50000000E-01
  8.50000000E-01  8.50000000E-01  7.20000000E-01  8.50000000E-01  8.50000000E-01
  7.20000000E-01  8.50000000E-01  8.50000000E-01  7.20000000E-01  8.50000000E-01
  7.90000000E-01  7.20000000E-01  8.50000000E-01  7.90000000E-01  7.20000000E-01
  7.20000000E-01  7.90000000E-01  8.50000000E-01  8.50000000E-01  7.90000000E-01
  7.20000000E-01  8.50000000E-01  7.90000000E-01  7.20000000E-01  7.20000000E-01
  8.50000000E-01  7.20000000E-01  8.50000000E-01  8.50000000E-01  8.50000000E-01
  8.60000000E-01  8.50000000E-01  8.50000000E-01  8.50000000E-01  7.20000000E-01
  8.50000000E-01  8.50000000E-01  7.20000000E-01  8.50000000E-01  8.50000000E-01
  7.20000000E-01  8.50000000E-01  7.90000000E-01  7.20000000E-01  8.50000000E-01
  7.90000000E-01  7.20000000E-01  7.20000000E-01  8.50000000E-01  7.90000000E-01
  8.50000000E-01  7.20000000E-01  7.90000000E-01  8.50000000E-01  8.50000000E-01
  7.90000000E-01  7.20000000E-01  7.20000000E-01  8.50000000E-01  7.20000000E-01
  8.50000000E-01  8.50000000E-01  8.50000000E-01  8.60000000E-01  8.50000000E-01
  8.50000000E-01  8.50000000E-01  7.20000000E-01  8.50000000E-01  8.50000000E-01
  7.20000000E-01  8.50000000E-01  8.50000000E-01  7.20000000E-01  8.50000000E-01
  7.90000000E-01  7.20000000E-01  8.50000000E-01  7.90000000E-01  7.20000000E-01
  7.20000000E-01  7.90000000E-01  8.50000000E-01  8.50000000E-01  7.90000000E-01
  7.20000000E-01  8.50000000E-01  7.90000000E-01  7.20000000E-01  7.20000000E-01
  8.50000000E-01  7.20000000E-01  8.50000000E-01  8.50000000E-01  8.50000000E-01
  8.60000000E-01  8.50000000E-01  8.50000000E-01  8.50000000E-01  7.20000000E-01
  8.50000000E-01  8.50000000E-01  7.20000000E-01  8.50000000E-01  8.50000000E-01
  7.20000000E-01  8.50000000E-01  7.90000000E-01  7.20000000E-01  8.50000000E-01
  7.90000000E-01  7.20000000E-01  7.20000000E-01  7.90000000E-01  8.50000000E-01
  8.50000000E-01  7.90000000E-01  7.20000000E-01  8.50000000E-01  7.90000000E-01
  7.20000000E-01  7.20000000E-01  8.50000000E-01  7.20000000E-01  8.50000000E-01
  8.50000000E-01  8.50000000E-01  8.60000000E-01  8.50000000E-01  8.50000000E-01
  8.50000000E-01  7.20000000E-01  8.50000000E-01  8.50000000E-01  7.20000000E-01
  8.50000000E-01  8.50000000E-01  7.20000000E-01  8.50000000E-01  7.90000000E-01
  7.20000000E-01  8.50000000E-01  7.20000000E-01  8.50000000E-01  7.20000000E-01
  8.50000000E-01  7.90000000E-01  8.50000000E-01  7.20000000E-01  8.50000000E-01
  7.20000000E-01  8.50000000E-01  7.20000000E-01  8.50000000E-01  8.50000000E-01
  8.50000000E-01  8.50000000E-01  8.60000000E-01  8.50000000E-01  8.50000000E-01
  8.50000000E-01  7.20000000E-01  8.50000000E-01  8.50000000E-01  7.20000000E-01
  8.50000000E-01  8.50000000E-01  7.20000000E-01  8.50000000E-01  7.90000000E-01
  7.20000000E-01  8.50000000E-01  7.20000000E-01  8.50000000E-01  7.20000000E-01
  8.50000000E-01  7.90000000E-01  8.50000000E-01  7.20000000E-01  8.50000000E-01
  7.20000000E-01  8.50000000E-01  7.20000000E-01  8.50000000E-01  8.50000000E-01
  8.50000000E-01  8.50000000E-01  8.60000000E-01  8.50000000E-01  8.50000000E-01
  8.50000000E-01  7.20000000E-01  8.50000000E-01  8.50000000E-01  7.20000000E-01
  8.50000000E-01  8.50000000E-01  7.20000000E-01  8.50000000E-01  7.90000000E-01
  7.20000000E-01  8.50000000E-01  7.20000000E-01  8.50000000E-01  7.20000000E-01
  7.90000000E-01  8.50000000E-01  8.50000000E-01  7.90000000E-01  7.20000000E-01
  8.50000000E-01  7.20000000E-01  8.50000000E-01  7.20000000E-01  8.50000000E-01
  8.50000000E-01  8.50000000E-01  8.50000000E-01  8.60000000E-01  8.50000000E-01
  8.50000000E-01  8.50000000E-01  7.20000000E-01  8.50000000E-01  8.50000000E-01
  7.20000000E-01  8.50000000E-01  8.50000000E-01  7.20000000E-01  8.50000000E-01
  7.90000000E-01  7.20000000E-01  8.50000000E-01  7.20000000E-01  8.50000000E-01
  7.20000000E-01  8.50000000E-01  7.90000000E-01  8.50000000E-01  7.20000000E-01
  8.50000000E-01  7.20000000E-01  8.50000000E-01  7.20000000E-01  8.50000000E-01
  8.50000000E-01  8.50000000E-01  8.50000000E-01  8.60000000E-01  8.50000000E-01
  8.50000000E-01  8.50000000E-01  7.20000000E-01  8.50000000E-01  8.50000000E-01
  7.20000000E-01  8.50000000E-01  8.50000000E-01  7.20000000E-01  8.50000000E-01
  7.90000000E-01  7.20000000E-01  8.50000000E-01  7.20000000E-01  8.50000000E-01
  7.20000000E-01  7.90000000E-01  8.50000000E-01  8.50000000E-01  7.90000000E-01
  7.20000000E-01  8.50000000E-01  7.20000000E-01  8.50000000E-01  7.20000000E-01
  8.50000000E-01  8.50000000E-01  8.50000000E-01  8.50000000E-01  8.60000000E-01
  8.50000000E-01  8.50000000E-01  8.50000000E-01  7.20000000E-01  8.50000000E-01
  8.50000000E-01  7.20000000E-01  8.50000000E-01  8.50000000E-01  7.20000000E-01
  8.50000000E-01  7.90000000E-01  7.20000000E-01  8.50000000E-01  7.20000000E-01
  8.50000000E-01  7.20000000E-01  8.50000000E-01  7.90000000E-01  8.50000000E-01
  7.20000000E-01  8.50000000E-01  7.20000000E-01  8.50000000E-01  7.20000000E-01
  8.50000000E-01  8.50000000E-01  8.50000000E-01  8.50000000E-01  8.60000000E-01
  8.50000000E-01  8.50000000E-01  8.50000000E-01  7.20000000E-01  8.50000000E-01
  8.50000000E-01  7.20000000E-01  8.50000000E-01  8.50000000E-01  7.20000000E-01
  8.50000000E-01  7.90000000E-01  7.20000000E-01  8.50000000E-01  7.20000000E-01
  8.50000000E-01  7.20000000E-01  8.50000000E-01  7.90000000E-01  8.50000000E-01
  7.20000000E-01  8.50000000E-01  7.20000000E-01  8.50000000E-01  7.20000000E-01
  8.50000000E-01  8.50000000E-01  8.50000000E-01  8.50000000E-01  8.60000000E-01
  8.50000000E-01  8.50000000E-01  8.50000000E-01  7.20000000E-01  8.50000000E-01
  8.50000000E-01  7.20000000E-01  8.50000000E-01  8.50000000E-01  7.20000000E-01
  8.50000000E-01  7.90000000E-01  7.20000000E-01  8.50000000E-01  7.20000000E-01
  8.50000000E-01  7.20000000E-01  7.90000000E-01  8.50000000E-01  8.50000000E-01
  7.90000000E-01  7.20000000E-01  8.50000000E-01  7.20000000E-01  8.50000000E-01
  7.20000000E-01  8.50000000E-01  8.50000000E-01  8.50000000E-01  8.50000000E-01
  8.60000000E-01  8.50000000E-01  8.50000000E-01  8.50000000E-01  7.20000000E-01
  8.50000000E-01  8.50000000E-01  7.20000000E-01  8.50000000E-01  8.50000000E-01
  7.20000000E-01  8.50000000E-01  7.90000000E-01  7.20000000E-01  8.50000000E-01
  7.20000000E-01  8.50000000E-01  7.20000000E-01  7.90000000E-01  8.50000000E-01
  8.50000000E-01  7.90000000E-01  7.20000000E-01  8.50000000E-01  7.20000000E-01
  8.50000000E-01  7.20000000E-01  8.50000000E-01  8.50000000E-01  8.50000000E-01
  8.50000000E-01  8.60000000E-01  8.50000000E-01  8.50000000E-01  8.50000000E-01
  7.20000000E-01  8.50000000E-01  8.50000000E-01  7.20000000E-01  8.50000000E-01
  8.50000000E-01  7.20000000E-01  8.50000000E-01  7.90000000E-01  7.20000000E-01
  8.50000000E-01  7.20000000E-01  8.50000000E-01  7.20000000E-01  8.50000000E-01
  7.90000000E-01  8.50000000E-01  7.20000000E-01  8.50000000E-01  7.20000000E-01
  8.50000000E-01  7.20000000E-01  8.50000000E-01  8.50000000E-01  8.50000000E-01
  8.50000000E-01  8.60000000E-01  8.50000000E-01  8.50000000E-01  8.50000000E-01
  7.20000000E-01  8.50000000E-01  8.50000000E-01  7.20000000E-01  8.50000000E-01
  8.50000000E-01  7.20000000E-01  8.50000000E-01  7.90000000E-01  7.20000000E-01
  8.50000000E-01  7.20000000E-01  8.50000000E-01  7.20000000E-01  7.90000000E-01
  8.50000000E-01  8.50000000E-01  7.90000000E-01  7.20000000E-01  8.50000000E-01
  7.20000000E-01  8.50000000E-01  7.20000000E-01  8.50000000E-01  8.50000000E-01
  8.50000000E-01  8.50000000E-01  8.60000000E-01  8.50000000E-01  8.50000000E-01
  8.50000000E-01  7.20000000E-01  8.50000000E-01  8.50000000E-01  7.20000000E-01
  8.50000000E-01  8.50000000E-01  7.20000000E-01  8.50000000E-01  7.90000000E-01
  7.20000000E-01  8.50000000E-01  7.20000000E-01  8.50000000E-01  7.20000000E-01
  8.50000000E-01  7.90000000E-01  8.50000000E-01  7.20000000E-01  8.50000000E-01
  7.20000000E-01  8.50000000E-01  7.20000000E-01  8.50000000E-01  8.50000000E-01
  8.50000000E-01  8.50000000E-01  8.60000000E-01  8.50000000E-01  8.50000000E-01
  8.50000000E-01  7.20000000E-01  8.50000000E-01  8.50000000E-01  7.20000000E-01
  8.50000000E-01  8.50000000E-01  7.20000000E-01  8.50000000E-01  7.90000000E-01
  7.20000000E-01  8.50000000E-01  7.20000000E-01  8.50000000E-01  7.20000000E-01
  7.90000000E-01  8.50000000E-01  8.50000000E-01  7.90000000E-01  7.20000000E-01
  8.50000000E-01  7.20000000E-01  8.50000000E-01  7.20000000E-01  8.50000000E-01
  8.50000000E-01  8.50000000E-01  8.50000000E-01
%FLAG IPOL
%FORMAT(1I8)
       0
