
  818  0.0000000e+00
   4.0700000  -9.3920000   4.4480000   4.7630000 -10.6900000   4.6010000
   3.9410000  -8.5750000   5.6760000   4.8050000  -8.5310000   3.3180000
   5.6850000  -9.1610000   2.3330000   6.3130000  -9.9860000   2.6710000
   4.9120000  -9.5400000   1.6640000   6.5330000  -8.1430000   1.5980000
   7.2370000  -8.6590000   0.9450000   5.6970000  -7.3400000   0.6960000
   5.9490000  -5.9680000   0.9580000   6.7600000  -5.6690000   0.2940000
   4.7470000  -5.1340000   0.6800000   3.4300000  -5.5180000   0.5540000
   3.1010000  -6.5520000   0.6520000   2.6070000  -4.5280000   0.3060000
   3.4380000  -3.4090000   0.2650000   3.1220000  -2.0450000   0.0340000
   2.0260000  -1.5350000  -0.1850000   4.2690000  -1.2400000   0.0790000
   4.1460000  -0.2390000  -0.0760000   5.5510000  -1.6930000   0.3150000
   6.5100000  -0.7650000   0.3170000   6.2740000   0.2130000   0.1500000
   7.4800000  -1.0330000   0.4850000   5.8460000  -2.9730000   0.5310000
   4.7450000  -3.7680000   0.4910000   7.2990000  -7.1620000   2.4860000
   7.3530000  -7.5570000   3.5000000   6.4210000  -5.9130000   2.4070000
   5.6060000  -5.9950000   3.1250000   7.0440000  -5.0240000   2.5040000
   8.5980000  -6.9230000   1.9550000   9.7910000  -6.4050000   2.8860000
  11.0680000  -6.5110000   2.1480000   9.7320000  -7.1080000   4.1880000
   9.4340000  -4.8610000   3.1060000  10.0470000  -3.8150000   2.2870000
   9.5970000  -3.8410000   1.2940000  11.1160000  -4.0180000   2.2100000
   9.8440000  -2.4370000   2.8840000  10.5590000  -1.7410000   2.4450000
   8.5080000  -1.9040000   2.5210000   7.9070000  -1.4270000   3.7150000
   8.2880000  -0.4200000   3.8860000   6.4210000  -1.3850000   3.6120000
   5.5160000  -2.4190000   3.6910000   5.8140000  -3.4560000   3.8490000
   4.2800000  -2.0490000   3.5610000   4.3590000  -0.6750000   3.3830000
   3.3790000   0.3120000   3.1870000   2.0650000   0.0520000   3.1360000
   1.3990000   0.8110000   2.9910000   1.7310000  -0.9060000   3.2420000
   3.8010000   1.5830000   3.0450000   5.1080000   1.8360000   3.0970000
   5.3860000   2.8820000   2.9750000   6.1080000   1.0020000   3.2730000
   5.6600000  -0.2630000   3.4130000   9.9250000  -2.3550000   4.4080000
  10.4600000  -3.2230000   4.7940000   8.4430000  -2.3810000   4.7780000
   8.0530000  -3.3950000   4.6880000   8.2930000  -1.9050000   5.7470000
  10.5500000  -1.1420000   4.8120000  10.9730000  -0.8580000   6.3290000
  12.4360000  -0.6630000   6.4200000  10.3980000  -1.8950000   7.2170000
  10.2180000   0.5340000   6.5580000  10.5570000   1.6920000   5.7390000
  10.4470000   1.4210000   4.6890000  11.5920000   1.9680000   5.9400000
   9.6580000   2.8740000   6.0400000   9.9810000   3.7360000   5.4550000
   8.2760000   2.6010000   5.5930000   7.4050000   2.9600000   6.6540000
   7.2370000   4.0350000   6.5790000   6.1000000   2.2470000   6.5670000
   5.8400000   0.8960000   6.6330000   6.6200000   0.1470000   6.7660000
   4.5700000   0.5910000   6.5220000   3.9440000   1.8280000   6.3710000
   2.5710000   2.1430000   6.2060000   1.6070000   1.3830000   6.1580000
   2.3740000   3.5260000   6.0900000   1.4160000   3.8550000   5.9680000
   3.3720000   4.4790000   6.1290000   2.9770000   5.7480000   6.0000000
   1.9870000   5.9640000   5.8820000   3.6640000   6.5010000   6.0200000
   4.6600000   4.1820000   6.2840000   4.8690000   2.8450000   6.3980000
   9.5550000   3.2710000   7.5120000  10.3890000   2.8380000   8.0650000
   8.2190000   2.6410000   7.9030000   8.3480000   1.5730000   8.0750000
   7.7760000   3.1980000   8.7290000   9.5280000   4.6880000   7.6460000
   9.7570000   5.4100000   9.0550000  10.8030000   6.4470000   8.9220000
   9.9780000   4.3930000  10.1080000   8.3310000   6.1040000   9.2670000
   7.9230000   7.2630000   8.4760000   7.8580000   6.9740000   7.4270000
   8.6640000   8.0530000   8.5930000   6.5710000   7.7560000   8.9490000
   6.3320000   8.6970000   8.4540000   5.5130000   6.8220000   8.5120000
   4.6780000   6.5940000   9.6370000   3.9560000   7.4100000   9.6690000
   3.9550000   5.2950000   9.5360000   4.4590000   4.0150000   9.5970000
   5.5180000   3.8020000   9.7360000   3.5590000   3.0890000   9.4740000
   2.3730000   3.7920000   9.3210000   1.0430000   3.3780000   9.1440000
   0.6680000   2.0920000   9.0890000  -0.3140000   1.8510000   8.9590000
   1.3670000   1.3540000   9.1780000   0.1060000   4.3380000   9.0240000
   0.4840000   5.6150000   9.0800000  -0.3190000   6.3440000   8.9770000
   1.6870000   6.1180000   9.2400000   2.6070000   5.1370000   9.3570000
   6.4400000   7.9430000  10.4610000   7.4290000   7.9450000  10.9200000
   5.6360000   6.6950000  10.8190000   6.3080000   5.8400000  10.8970000
   5.0290000   6.8940000  11.7020000   5.7290000   9.1390000  10.7620000
   5.7920000   9.8090000  12.2140000   6.1970000  11.2270000  12.0980000
   6.6080000   8.9700000  13.1210000   4.2490000   9.7140000  12.6260000
   3.2290000  10.4750000  11.9140000   3.2650000  10.2080000  10.8570000
   3.4400000  11.5370000  12.0310000   1.8450000  10.1760000  12.4540000
   1.1340000  10.9000000  12.0550000   1.3700000   8.8560000  11.9640000
   0.8750000   8.1420000  13.0870000  -0.1510000   8.4710000  13.2500000
   0.8950000   6.6700000  12.8640000   1.9740000   5.8220000  12.7420000
   3.0070000   6.1630000  12.7990000   1.6470000   4.5670000  12.5500000
   0.2530000   4.5850000  12.5460000  -0.6740000   3.5230000  12.3810000
  -0.4520000   2.3280000  12.2010000  -1.9960000   3.9840000  12.4440000
  -2.7390000   3.2940000  12.3350000  -2.3730000   5.2970000  12.6400000
  -3.6870000   5.5320000  12.6690000  -4.3460000   4.7620000  12.5490000
  -4.0330000   6.4810000  12.8100000  -1.5030000   6.2930000  12.7950000
  -0.2150000   5.8630000  12.7370000   1.7240000  10.1340000  13.9770000
   2.5700000  10.6510000  14.4280000   1.7710000   8.6260000  14.2220000
   2.7980000   8.2710000  14.1440000   1.2630000   8.3890000  15.1570000
   0.4880000  10.7010000  14.3990000   0.1740000  10.9930000  15.9400000
  -0.1430000  12.4260000  16.1230000   1.2680000  10.4560000  16.7820000
  -1.1470000  10.1150000  16.1480000  -2.3860000  10.4730000  15.4660000
  -2.2410000  10.3610000  14.3920000  -2.6250000  11.5110000  15.6980000
  -3.5300000   9.5830000  15.9090000  -4.4620000   9.9440000  15.4720000
  -3.3580000   8.2190000  15.3720000  -3.4960000   7.3010000  16.4460000
  -4.5560000   7.0540000  16.5100000  -2.7100000   6.0590000  16.2040000
  -1.3480000   5.9000000  16.0850000  -0.6440000   6.7290000  16.1610000
  -0.9710000   4.6630000  15.8730000  -2.1700000   3.9510000  15.8490000
  -2.4060000   2.5660000  15.6560000  -1.5930000   1.6650000  15.4640000
  -3.7760000   2.2690000  15.7070000  -4.0500000   1.2940000  15.5790000
  -4.7830000   3.1890000  15.9150000  -6.0270000   2.7040000  15.9290000
  -6.1870000   1.7060000  15.7900000  -6.8180000   3.3310000  16.0780000
  -4.5600000   4.4890000  16.0960000  -3.2370000   4.7950000  16.0500000
  -3.7060000   9.4390000  17.4200000  -3.1710000  10.2430000  17.9250000
  -3.0700000   8.0760000  17.6880000  -1.9890000   8.1880000  17.7720000
  -3.5600000   7.6050000  18.5410000  -5.0890000   9.4450000  17.7610000
  -5.5800000   9.7620000  19.2500000  -6.6800000  10.7500000  19.2160000
  -4.4170000  10.1110000  20.0970000  -6.1500000   8.3290000  19.6780000
  -7.4010000   7.8320000  19.1230000  -7.3950000   7.9890000  18.0440000
  -8.2270000   8.3870000  19.5690000  -7.5750000   6.3550000  19.4100000
  -8.4890000   5.9960000  18.9350000  -6.4930000   5.5810000  18.7940000
  -6.4380000   4.3360000  19.4740000  -7.2060000   3.7030000  19.0290000
  -5.1060000   3.6880000  19.3120000  -3.8610000   4.2700000  19.2380000
  -3.7070000   5.3480000  19.2950000  -2.8910000   3.4220000  19.0960000
  -3.5240000   2.1880000  19.0710000  -3.0390000   0.8770000  18.9420000
  -1.7390000   0.5780000  18.8060000  -1.4450000  -0.3940000  18.7150000
  -1.0440000   1.3240000  18.7920000  -3.9420000  -0.1220000  18.9570000
  -5.2320000   0.1810000  19.0930000  -5.9140000  -0.6690000  19.0980000
  -5.8000000   1.3600000  19.2210000  -4.8750000   2.3420000  19.2030000
  -7.5860000   5.9640000  20.8880000  -7.0860000   6.7420000  21.4650000
  -6.8040000   4.6520000  20.9200000  -5.9190000   4.7960000  21.5410000
  -7.4750000   3.8550000  21.2400000  -8.9260000   5.7740000  21.3300000
  -9.3150000   5.8340000  22.8810000 -10.6480000   6.4510000  23.0450000
  -8.2130000   6.4500000  23.6550000  -9.3940000   4.2680000  23.1980000
 -10.2780000   3.3860000  22.4410000 -10.1440000   3.5820000  21.3770000
 -11.3090000   3.5950000  22.7260000  -9.9600000   1.9320000  22.7240000
 -10.6570000   1.2950000  22.1800000  -8.6230000   1.5830000  22.1900000
  -7.9280000   0.8520000  23.1890000  -8.2280000  -0.1900000  23.0870000
  -6.4510000   0.9620000  23.0270000  -5.6390000   2.0620000  23.1900000
  -6.0210000   3.0420000  23.4760000  -4.3830000   1.8260000  22.9730000
  -4.3470000   0.4790000  22.6420000  -3.2940000  -0.3840000  22.2980000
  -2.0120000   0.0030000  22.2290000  -1.2880000  -0.6700000  21.9730000
  -1.7600000   0.9700000  22.4310000  -3.6060000  -1.6650000  22.0270000
  -4.8810000  -2.0440000  22.0980000  -5.0710000  -3.0930000  21.8680000
  -5.9430000  -1.3330000  22.4060000  -5.6030000  -0.0540000  22.6730000
  -9.9590000   1.5320000  24.1990000 -10.4360000   2.3160000  24.7870000
  -8.4640000   1.4270000  24.4960000  -8.0680000   2.4170000  24.7200000
  -8.2990000   0.6710000  25.2640000 -10.6170000   0.2820000  24.3750000
 -11.0040000  -0.2560000  25.8310000 -12.3800000  -0.7980000  25.8140000
 -10.7300000   0.7930000  26.8390000  -9.9550000  -1.4520000  26.0020000
 -10.1050000  -2.6920000  25.2470000  -9.9480000  -2.4790000  24.1900000
 -11.1160000  -3.0700000  25.3990000  -9.1070000  -3.7420000  25.6930000
  -9.3690000  -4.7040000  25.2510000  -7.7620000  -3.4300000  25.1670000
  -6.8400000  -3.5280000  26.2420000  -6.5460000  -4.5750000  26.3130000
  -5.6330000  -2.6870000  26.0110000  -5.5330000  -1.3180000  25.8990000
  -6.3930000  -0.6520000  25.9720000  -4.3130000  -0.8860000  25.6960000
  -3.5490000  -2.0530000  25.6720000  -2.1520000  -2.2260000  25.4880000
  -1.2880000  -1.3730000  25.3050000  -1.7960000  -3.5820000  25.5350000
  -0.8090000  -3.8120000  25.4130000  -2.6720000  -4.6300000  25.7340000
  -2.1320000  -5.8510000  25.7460000  -1.1280000  -5.9660000  25.6120000
  -2.7250000  -6.6690000  25.8880000  -3.9820000  -4.4650000  25.9060000
  -4.3450000  -3.1570000  25.8640000  -8.9520000  -3.9070000  27.2040000
  -9.8080000  -3.4570000  27.7100000  -7.6620000  -3.1310000  27.4640000
  -7.8770000  -2.0640000  27.5080000  -7.1560000  -3.5430000  28.3370000
  -8.8160000  -5.2820000  27.5450000  -8.8100000  -5.7770000  29.0660000
  -9.7600000  -6.8990000  29.2290000  -9.0090000  -4.6190000  29.9670000
  -7.3100000  -6.3170000  29.2090000  -6.8920000  -7.5360000  28.5220000
  -6.8620000  -7.3410000  27.4500000  -7.6190000  -8.3210000  28.7320000
  -5.5210000  -7.9860000  28.9830000  -5.2980000  -8.9650000  28.5590000
  -4.4810000  -7.0910000  28.4460000  -3.6870000  -6.6300000  29.5280000
  -2.8600000  -7.3330000  29.6300000  -3.1500000  -5.2660000  29.2650000
  -3.8230000  -4.0670000  29.1930000  -4.9010000  -3.9850000  29.3310000
  -3.0600000  -3.0480000  28.9470000  -1.7900000  -3.5970000  28.8470000
  -0.5300000  -3.0300000  28.5940000  -0.3360000  -1.7200000  28.3860000
   0.6040000  -1.3650000  28.2070000  -1.1280000  -1.0780000  28.4070000
   0.5280000  -3.8620000  28.5620000   0.3290000  -5.1630000  28.7690000
   1.2240000  -5.7840000  28.7310000  -0.7930000  -5.8030000  29.0130000
  -1.8370000  -4.9480000  29.0400000  -5.3190000  -8.0370000  30.4980000
  -6.2890000  -8.0710000  30.9930000  -4.5920000  -6.7170000  30.7530000
  -5.3180000  -5.9060000  30.8050000  -3.9420000  -6.8210000  31.6210000
  -4.5170000  -9.1570000  30.8560000  -4.2970000  -9.5730000  32.3850000
  -4.5930000 -11.0120000  32.5570000  -5.0460000  -8.6460000  33.2650000
  -2.7260000  -9.3220000  32.5550000  -1.7680000 -10.2110000  31.9070000
  -1.8560000 -10.0940000  30.8270000  -2.0040000 -11.2390000  32.1850000
  -0.3480000  -9.8930000  32.3260000   0.3320000 -10.6310000  31.9000000
   0.0760000  -8.6110000  31.7530000   0.5480000  -7.7740000  32.7970000
   1.6270000  -7.9220000  32.8490000   0.2550000  -6.3420000  32.5130000
  -0.9620000  -5.7120000  32.3750000  -1.9140000  -6.2340000  32.4660000
  -0.8730000  -4.4290000  32.1250000   0.5000000  -4.1910000  32.0950000
   1.2140000  -2.9860000  31.8680000   0.7740000  -1.8610000  31.6420000
   2.5990000  -3.1940000  31.9260000   3.2020000  -2.3850000  31.7750000
   3.2140000  -4.4060000  32.1710000   4.5480000  -4.3940000  32.1850000
   5.0530000  -3.5230000  32.0200000   5.0640000  -5.2570000  32.3600000
   2.5430000  -5.5360000  32.3840000   1.1970000  -5.3520000  32.3310000
  -0.1110000  -9.8050000  33.8340000  -0.9330000 -10.2940000  34.3570000
  -0.1020000  -8.2960000  34.0750000  -1.1260000  -7.9440000  34.2040000
   0.5800000  -8.0640000  34.8930000   1.1400000 -10.3940000  34.1730000
   1.5190000 -10.7430000  35.6880000   2.3270000 -11.9810000  35.7260000
   0.2950000 -10.7380000  36.5200000   2.4360000  -9.4900000  36.0760000
   3.8130000  -9.4040000  35.6020000   3.8100000  -9.3450000  34.5140000
   4.3520000 -10.2960000  35.9200000   4.4900000  -8.1730000  36.1700000
   5.5470000  -8.1840000  35.9060000   3.9560000  -6.9670000  35.5250000
   3.8560000  -5.9700000  36.5290000   4.8500000  -5.5400000  36.6540000
   2.8940000  -4.8960000  36.1540000   1.5230000  -4.8760000  36.2810000
   0.9560000  -5.7060000  36.7010000   0.9710000  -3.7830000  35.8560000
   2.0400000  -3.0170000  35.4130000   2.1160000  -1.7360000  34.8440000
   1.0450000  -0.9640000  34.6110000   1.1610000  -0.0400000  34.1940000
   0.1120000  -1.3010000  34.8510000   3.3380000  -1.2730000  34.5200000
   4.3990000  -2.0450000  34.7530000   5.3600000  -1.6150000  34.4690000
   4.4510000  -3.2490000  35.2760000   3.2150000  -3.6890000  35.5920000
   4.3590000  -8.0010000  37.6840000   3.8800000  -8.8820000  38.1110000
   3.4670000  -6.7640000  37.7720000   2.4230000  -7.0750000  37.7620000
   3.7690000  -6.1640000  38.6320000   5.6350000  -7.7720000  38.2710000
   5.8420000  -7.7830000  39.8580000   6.7390000  -8.8950000  40.2400000
   4.5260000  -7.7470000  40.5350000   6.5930000  -6.3850000  40.0610000
   8.0270000  -6.2760000  39.8320000   8.2620000  -6.7090000  38.8600000
   8.5490000  -6.8280000  40.6150000   8.4750000  -4.8290000  39.8530000
   9.5600000  -4.7820000  39.7630000   7.9600000  -4.1140000  38.6800000
   7.5780000  -2.8000000  39.0580000   8.1360000  -2.1240000  38.4110000
   6.1180000  -2.5940000  38.8510000   5.0790000  -3.4750000  39.0560000
   5.2290000  -4.4920000  39.4190000   3.9110000  -2.9850000  38.7790000
   4.1810000  -1.6910000  38.3600000   3.3520000  -0.6450000  37.9230000
   2.0180000  -0.7450000  37.8330000   1.4670000   0.0500000  37.5090000
   1.5540000  -1.6160000  38.0890000   3.9460000   0.5140000  37.5810000
   5.2720000   0.6080000  37.6730000   5.6930000   1.5700000  37.3820000
   6.1430000  -0.2950000  38.0640000   5.5230000  -1.4450000  38.4010000
   8.0330000  -4.0160000  41.0700000   7.0390000  -4.3380000  41.3810000
   8.0220000  -2.5970000  40.5030000   7.3200000  -1.9900000  41.0760000
   9.0440000  -2.2190000  40.4640000   8.9730000  -4.1510000  42.1250000
  -2.0350000   8.6860000  36.5260000  -2.2440000   9.4760000  35.2940000
  -2.9060000   7.5000000  36.6930000  -0.5020000   8.2390000  36.6210000
   0.5730000   9.1190000  36.1900000   0.7060000  10.0840000  35.6990000
  -0.1270000   9.2240000  37.0190000   1.9060000   8.6260000  36.7140000
   2.4470000   9.4540000  37.1720000   1.7120000   7.6490000  37.7880000
   2.7150000   6.6490000  37.6980000   3.2180000   6.6340000  38.6640000
   2.1100000   5.3140000  37.4320000   0.7860000   5.1960000  37.0730000
   0.1740000   6.0940000  36.9840000   0.2340000   3.9960000  36.8320000
  -0.8170000   3.9340000  36.5500000   1.0140000   2.7870000  36.9410000
   0.5990000   1.6480000  36.7400000   2.3340000   3.0000000  37.3060000
   2.9260000   2.1740000  37.3950000   2.9260000   4.2170000  37.5590000
   4.1030000   4.2930000  37.8750000   2.8080000   7.9290000  35.6960000
   2.2040000   7.3040000  35.0370000   3.6970000   7.1000000  36.6210000
   4.1220000   6.2670000  36.0610000   4.6380000   7.9520000  37.2570000
   5.2320000   8.2840000  36.5660000   3.5600000   8.8830000  34.9550000
   3.8410000   8.7050000  33.3900000   4.5050000   9.9180000  32.8660000
   2.5900000   8.3020000  32.7080000   4.8730000   7.4830000  33.3760000
   6.2800000   7.6750000  33.6890000   6.3620000   8.3080000  34.5730000
   6.7660000   8.1610000  32.8440000   6.9500000   6.3430000  33.9630000
   7.9310000   6.5140000  34.4050000   6.1940000   5.5600000  34.9600000
   6.3300000   4.1790000  34.6610000   6.7550000   3.7140000  35.5510000
   5.0060000   3.5650000  34.3640000   3.9320000   4.3440000  33.9960000
   4.0560000   5.4250000  33.9230000   2.7360000   3.7970000  33.7270000
   1.9040000   4.4390000  33.4380000   2.5370000   2.3710000  33.8140000
   1.4830000   1.7810000  33.5870000   3.6710000   1.6670000  34.1900000
   3.5790000   0.6540000  34.2650000   4.9080000   2.2000000  34.4720000
   5.8440000   1.4860000  34.7950000   7.0770000   5.3920000  32.7730000
   6.1450000   5.3800000  32.2070000   7.3250000   4.0770000  33.5100000
   7.1190000   3.2410000  32.8420000   8.6240000   4.0930000  34.0840000
   9.2580000   4.0180000  33.3540000   8.1780000   5.7570000  31.9480000
   8.2190000   5.3400000  30.4040000   9.4370000   5.8980000  29.7770000
   6.9340000   5.7010000  29.7630000   8.3440000   3.7470000  30.4810000
   9.6430000   3.0970000  30.5710000  10.2150000   3.5640000  31.3730000
  10.1660000   3.2280000  29.6240000   9.4940000   1.6170000  30.8630000
  10.4250000   1.2320000  31.2780000   8.4640000   1.3740000  31.8920000
   7.8590000   0.1130000  31.6490000   8.0330000  -0.4870000  32.5420000
   6.3930000   0.2590000  31.4270000   5.8550000   1.4520000  31.0570000
   6.5060000   2.3160000  30.9220000   4.5190000   1.5850000  30.8550000
   4.0810000   2.5380000  30.5580000   3.7150000   0.4150000  31.0480000
   2.4050000   0.4730000  30.8680000   1.8340000  -0.3610000  31.0060000
   1.9660000   1.3510000  30.5910000   4.2550000  -0.7540000  31.4120000
   5.5940000  -0.8660000  31.6100000   6.1290000  -1.9300000  31.9460000
   9.0400000   0.7370000  29.6980000   8.2140000   1.2140000  29.1710000
   8.5980000  -0.5070000  30.4680000   7.9540000  -1.1170000  29.8350000
   9.7390000  -1.1680000  30.9960000  10.2320000  -1.5270000  30.2420000
  10.1240000   0.4620000  28.8170000   9.8610000   0.0690000  27.2890000
  11.1560000  -0.1430000  26.6070000   8.9570000   1.0670000  26.6750000
   9.0950000  -1.3300000  27.4200000   9.8250000  -2.5860000  27.5030000
  10.5840000  -2.5000000  28.2800000  10.3040000  -2.7760000  26.5420000
   8.9010000  -3.7390000  27.8390000   9.4830000  -4.5650000  28.2480000
   7.9320000  -3.3670000  28.8930000   6.7260000  -4.0840000  28.6850000
   6.5480000  -4.6560000  29.5960000   5.5850000  -3.1560000  28.4510000
   5.8040000  -1.8430000  28.0980000   6.8260000  -1.4810000  27.9890000
   4.7800000  -1.0000000  27.8850000   4.9840000   0.0340000  27.6070000
   3.4140000  -1.4440000  28.0200000   2.4160000  -0.7490000  27.8470000
   3.2890000  -2.7780000  28.3770000   2.3410000  -3.1390000  28.4850000
   4.3190000  -3.6640000  28.6010000   4.0970000  -4.8240000  28.9130000
   8.0020000  -4.2450000  26.7100000   7.5480000  -3.4010000  26.1900000
   6.9850000  -5.0420000  27.5260000   6.0990000  -5.2320000  26.9210000
   7.6110000  -6.1940000  28.0720000   7.8540000  -6.7650000  27.3260000
   8.7320000  -5.0720000  25.8110000   8.2750000  -5.2250000  24.2850000
   9.2270000  -6.1040000  23.5730000   8.0660000  -3.8810000  23.6990000
   6.8650000  -5.9680000  24.4220000   6.7930000  -7.4170000  24.5420000
   7.4470000  -7.7340000  25.3540000   7.1290000  -7.8610000  23.6050000
   5.3800000  -7.8780000  24.8360000   5.4040000  -8.8920000  25.2360000
   4.7490000  -7.0480000  25.8800000   3.3530000  -6.9770000  25.6350000
   2.8640000  -7.3640000  26.5290000   2.9220000  -5.5710000  25.4020000
   3.8310000  -4.5880000  25.1690000   4.8930000  -4.8320000  25.1510000
   3.4380000  -3.3060000  24.9560000   4.1610000  -2.5120000  24.7690000
   2.0290000  -3.0460000  24.9910000   1.5750000  -1.8180000  24.7920000
   0.5720000  -1.6350000  24.8170000   2.2280000  -1.0560000  24.6140000
   1.1430000  -4.0220000  25.2220000   1.5560000  -5.2980000  25.4320000
   0.7670000  -6.2250000  25.6480000   4.3830000  -7.7990000  23.6800000
   4.4830000  -6.8420000  23.1670000   3.0730000  -7.9070000  24.4590000
   2.2470000  -7.5700000  23.8330000   2.9410000  -9.2180000  24.9890000
   3.0300000  -9.8350000  24.2450000   4.5610000  -8.8880000  22.7800000
   4.0700000  -8.7820000  21.2610000   4.3440000 -10.0600000  20.5680000
   4.6510000  -7.5690000  20.6430000   2.4890000  -8.5910000  21.4150000
   1.6030000  -9.7390000  21.5800000   1.8850000 -10.2730000  22.4870000
   1.7180000 -10.3950000  20.7170000   0.1580000  -9.2990000  21.6900000
  -0.4420000 -10.1150000  22.0920000   0.0110000  -8.1890000  22.6460000
  -1.1210000  -7.4170000  22.2760000  -1.8460000  -7.5370000  23.0810000
  -0.7580000  -5.9790000  22.1440000   0.5570000  -5.5890000  22.0280000
   1.3420000  -6.3460000  22.0330000   0.8910000  -4.2940000  21.9080000
   1.9410000  -4.0150000  21.8180000  -0.1210000  -3.2660000  21.8980000
   0.0870000  -2.0590000  21.7940000  -1.4150000  -3.7490000  22.0200000
  -2.1660000  -3.0580000  22.0180000  -1.7860000  -5.0690000  22.1440000
  -2.9610000  -5.3870000  22.2460000  -0.4870000  -8.7670000  20.4100000
   0.2050000  -8.0980000  19.8980000  -1.6860000  -8.0220000  20.9950000
  -2.0170000  -7.2650000  20.2840000  -2.6740000  -8.9620000  21.3900000
  -3.4270000  -8.8510000  20.7900000  -0.8890000  -9.8390000  19.5640000
  -1.0250000  -9.6620000  17.9800000  -1.1790000 -10.9890000  17.3460000
   0.0920000  -8.8270000  17.4810000  -2.3950000  -8.8460000  17.8510000
  -3.6790000  -9.5000000  18.0250000  -3.6220000 -10.1740000  18.8800000
  -3.9110000 -10.0680000  17.1250000  -4.7640000  -8.4700000  18.2690000
  -5.6590000  -8.9660000  18.6460000  -4.3660000  -7.5050000  19.3190000
  -4.9510000  -6.2450000  19.0280000  -5.5470000  -5.9750000  19.9000000
  -3.9040000  -5.2090000  18.8030000  -2.6370000  -5.5620000  18.3960000
  -2.4000000  -6.6130000  18.2360000  -1.6880000  -4.6330000  18.1910000
  -0.6940000  -4.9420000  17.8680000  -1.9670000  -3.2320000  18.3920000
  -1.1680000  -2.3130000  18.2300000  -3.2660000  -2.9700000  18.8010000
  -3.5110000  -1.9920000  18.9560000  -4.2580000  -3.9000000  19.0190000
  -5.3730000  -3.5600000  19.3800000  -5.1270000  -7.5700000  17.0880000
  -4.2200000  -7.2100000  16.6020000  -5.8690000  -6.4590000  17.8300000
  -5.9490000  -5.5810000  17.1890000  -7.0990000  -6.9610000  18.3320000
  -7.6490000  -7.1840000  17.5650000  -5.9700000  -8.2540000  16.1670000
  -6.0220000  -7.8090000  14.6310000  -6.9500000  -8.6940000  13.8950000
  -4.6430000  -7.7230000  14.0990000  -6.6480000  -6.3390000  14.7190000
  -8.0910000  -6.1450000  14.7460000  -8.5090000  -6.7450000  15.5550000
  -8.5040000  -6.4770000  13.7930000  -8.4550000  -4.6910000  14.9690000
  -9.4860000  -4.6230000  15.3160000  -7.6310000  -4.0880000  16.0360000
  -7.4710000  -2.7040000  15.7640000  -7.8930000  -2.1740000  16.6180000
  -6.0310000  -2.3520000  15.6230000  -5.0810000  -3.3170000  15.4960000
  -5.3790000  -4.3660000  15.4960000  -3.7690000  -2.9950000  15.3670000
  -3.0020000  -3.7630000  15.2640000  -3.4390000  -1.6010000  15.3730000
  -2.1790000  -1.2160000  15.2520000  -1.9460000  -0.2230000  15.2570000
  -1.4400000  -1.9120000  15.1540000  -4.3820000  -0.6590000  15.5000000
  -5.6900000  -1.0020000  15.6270000  -6.5890000  -0.1600000  15.7460000
  -8.2400000  -3.7450000  13.7880000  -7.2650000  -3.9300000  13.3360000
  -8.3000000  -2.4050000  14.5190000  -7.8620000  -1.6280000  13.8920000
  -9.6290000  -2.1610000  14.9550000 -10.1720000  -2.0510000  14.1600000
  -9.2860000  -3.8800000  12.8310000  -9.0680000  -3.4370000  11.3100000
 -10.2880000  -3.7400000  10.5300000  -7.8080000  -4.0270000  10.8030000
  -8.8970000  -1.8510000  11.4340000 -10.0530000  -0.9660000  11.4370000
 -10.7400000  -1.2890000  12.2190000 -10.5460000  -1.0330000  10.4670000
  -9.6460000   0.4700000  11.6950000 -10.5060000   1.0320000  12.0610000
  -8.6280000   0.5560000  12.7610000  -7.7810000   1.6650000  12.5040000
  -7.8610000   2.3190000  13.3720000  -6.3660000   1.2290000  12.3390000
  -6.0540000  -0.0800000  12.1450000  -6.8510000  -0.8230000  12.1090000
  -4.7640000  -0.4770000  11.9950000  -4.5060000  -1.5240000  11.8390000
  -3.7610000   0.5440000  12.0520000  -2.4830000   0.2270000  11.9130000
  -1.7700000   0.9560000  11.9540000  -2.2110000  -0.7450000  11.7660000
  -4.0800000   1.8290000  12.2440000  -5.3760000   2.2070000  12.3910000
  -5.7090000   3.3850000  12.5700000  -8.9990000   1.2140000  10.5270000
  -8.2640000   0.5720000  10.0410000  -8.3490000   2.3750000  11.2790000
  -7.5800000   2.8280000  10.6540000  -9.3570000   3.2600000  11.7450000
  -9.7200000   3.7110000  10.9670000  -9.9840000   1.6620000   9.6030000
  -9.6530000   1.8250000   8.0460000 -10.8960000   2.1320000   7.3050000
  -8.8900000   0.6470000   7.5770000  -8.7010000   3.1110000   8.0500000
  -9.2580000   4.4510000   8.1060000  -9.9760000   4.5010000   8.9250000
  -9.7620000   4.6620000   7.1630000  -8.1660000   5.4760000   8.3360000
  -8.6120000   6.4180000   8.6570000  -7.2640000   5.0650000   9.4310000
  -5.9610000   5.5590000   9.1610000  -5.6880000   6.1830000  10.0120000
  -4.9840000   4.4420000   9.0310000  -5.4120000   3.1480000   8.8340000
  -6.4800000   2.9410000   8.7730000  -4.5370000   2.1360000   8.7150000
  -4.9050000   1.1220000   8.5600000  -3.1160000   2.3740000   8.7910000
  -2.2410000   1.5160000   8.6950000  -2.7770000   3.7040000   8.9910000
  -1.7820000   3.9210000   9.0510000  -3.6510000   4.7600000   9.1150000
  -3.2450000   5.8980000   9.2900000  -7.2110000   5.7270000   7.1690000
  -6.9020000   4.7770000   6.7320000  -6.0720000   6.4240000   7.9100000
  -5.1710000   6.4060000   7.2960000  -6.4970000   7.7120000   8.3320000
  -6.6250000   8.2450000   7.5320000  -7.8110000   6.5720000   6.1940000
  -7.4230000   6.4500000   4.6460000  -8.2820000   7.3520000   3.8490000
  -7.4290000   5.0240000   4.2480000  -5.9200000   6.9990000   4.6390000
  -5.6550000   8.4290000   4.6070000  -6.2110000   8.9080000   5.4130000
  -5.9840000   8.8250000   3.6470000  -4.1760000   8.7070000   4.7870000
  -4.0310000   9.7590000   5.0350000  -3.6250000   7.9500000   5.9250000
  -2.2620000   7.6560000   5.6600000  -1.6880000   8.1200000   6.4630000
  -2.0240000   6.1850000   5.6660000  -3.0600000   5.3070000   5.6130000
  -4.0820000   5.6840000   5.5660000  -2.8420000   3.9670000   5.6190000
  -3.6680000   3.2560000   5.5770000  -1.4790000   3.5320000   5.6820000
  -1.1940000   2.2390000   5.6910000  -0.2220000   1.9310000   5.7370000
  -1.9460000   1.5510000   5.6530000  -0.4660000   4.4060000   5.7340000
  -0.7050000   5.7430000   5.7280000   0.2050000   6.5800000   5.7740000
  -3.2660000   8.3190000   3.6220000  -3.5360000   7.3300000   3.2520000
  -1.9150000   8.3260000   4.3350000  -1.1920000   7.7590000   3.7480000
  -1.5440000   9.6640000   4.6340000  -1.2540000  10.0700000   3.8020000
  -3.3270000   9.2920000   2.5840000  -2.9740000   8.9120000   1.0710000
  -3.2440000  10.0730000   0.1950000  -3.6590000   7.6500000   0.7090000
  -1.3960000   8.6560000   1.1450000  -0.4490000   9.7520000   1.0120000
  -0.7370000  10.5500000   1.6960000  -0.4810000  10.1200000  -0.0140000
   0.9580000   9.2970000   1.3410000   1.5740000  10.1640000   1.5810000
   0.9800000   8.4400000   2.5460000   2.0340000   7.4980000   2.4200000
   2.6850000   7.6510000   3.2810000   1.5070000   6.1040000   2.4380000
   0.1730000   5.8500000   2.2110000  -0.5050000   6.6820000   2.0170000
  -0.3090000   4.5970000   2.2260000  -1.3700000   4.4260000   2.0430000
   0.5590000   3.4730000   2.4790000   0.2120000   2.2940000   2.5120000
   1.8830000   3.8220000   2.6960000   2.5360000   3.0590000   2.8800000
   2.4050000   5.0960000   2.6870000   3.5920000   5.2930000   2.8910000
   1.6590000   8.4340000   0.2920000   0.9770000   7.6670000  -0.0740000
   2.7870000   7.8520000   1.1420000   3.2120000   6.9830000   0.6410000
   3.7110000   8.8770000   1.4750000   4.0820000   9.2060000   0.6410000
   2.1540000   9.2360000  -0.7750000   2.3440000   8.6230000  -2.2410000
   2.8040000   9.6850000  -3.1610000   1.1080000   7.9100000  -2.6360000
   3.5210000   7.5600000  -2.0280000   4.9200000   7.9640000  -2.0900000
   5.1250000   8.6510000  -1.2690000   5.0980000   8.4660000  -3.0410000
   5.8340000   6.7610000  -1.9740000   6.8670000   7.0960000  -1.8880000
   5.5590000   6.0020000  -0.7440000   5.8430000   4.6320000  -0.9860000
   6.6170000   4.3520000  -0.2720000   4.6320000   3.7940000  -0.7620000
   3.3910000   4.3480000  -0.7320000   3.2790000   5.4220000  -0.8740000
   2.2880000   3.5830000  -0.5270000   1.2900000   4.0190000  -0.5020000
   2.4980000   2.1770000  -0.3460000   1.4670000   1.3720000  -0.1420000
   1.6190000   0.3720000  -0.0140000   0.5210000   1.7520000  -0.1130000
   3.7250000   1.6430000  -0.3780000   4.8160000   2.4250000  -0.5840000
   5.9640000   1.9670000  -0.6190000   5.7200000   5.7160000  -3.0830000
   4.6700000   5.5210000  -3.3030000   6.4000000   4.5290000  -2.4020000
   6.1140000   3.6060000  -2.9070000   7.7970000   4.7690000  -2.3150000
   8.1230000   4.8780000  -3.2220000   6.4200000   6.1340000  -4.2450000
