DG5
   942
   1.8660260   1.5000000  -0.0000012   1.9580760   1.7210550   0.9296550
   0.7884380   2.1108760   1.6736890   0.0596090   1.3005550   1.6566980
   0.3509390   3.0018620   1.2233120   1.1658520   2.4133220   3.1146900
   0.3918980   3.0298930   3.5717850   1.1422280   1.1699970   3.8796640
   2.4682030   0.7379320   4.1470790   2.6232300   0.6848500   5.2246920
   2.5906830  -0.6790990   3.7030950   2.8131290  -1.1801910   2.4366730
   2.9239230  -0.5054310   1.6007170   2.8665700  -2.4879960   2.3829150
   2.6666190  -2.8847850   3.6999870   2.6181740  -4.1832470   4.2727410
   2.7451160  -5.2746790   3.7199640   2.3923600  -4.1240700   5.6531420
   2.3402470  -4.9915300   6.1479110   2.2359900  -2.9648930   6.3854390
   2.0279700  -3.1233840   7.6996720   1.9627980  -3.9961080   8.2038610
   1.9037630  -2.2802300   8.2416720   2.2837920  -1.7494050   5.8476620
   2.5027000  -1.7893440   4.5059900   2.5756630   2.9669230   3.3311560
   2.8819400   3.5357980   2.4532750   3.4249300   1.6988420   3.4389330
   4.1778120   1.6970740   2.6507290   3.9172930   1.6722080   4.4110280
   2.7856320   3.7213670   4.5156930   4.2326640   4.3486871   4.8392172
   5.2086688   3.2396850   4.9282610   4.1458119   5.0732496   6.1267992
   4.4831639   5.3124941   3.5868898   4.1187380   4.8559571   2.2706957
   3.9397338   5.7150757   1.6241876   4.6752490   3.9493734   2.0329937
   4.4432243   5.9258895   1.2409612   4.5067816   5.4718009   0.2520915
   3.3157026   6.8487259   1.1478633   3.6359476   8.0745368   1.7891353
   3.5759319   8.8892288   1.0674884   2.5504990   8.3844234   2.7616935
   2.3633302   7.9045338   4.0419567   3.0658699   7.2004658   4.4628228
   1.2973088   8.3782574   4.6380141   0.7370420   9.2298696   3.6930491
  -0.4325766  10.0326182   3.7561934  -1.2320101  10.1583189   4.6824791
  -0.6290956  10.7427362   2.5657677  -1.4312337  11.3374914   2.5124829
   0.1952301  10.6876731   1.4603920  -0.1687535  11.4460022   0.4172946
  -0.9831449  12.0398448   0.3523489   0.4244010  11.4048478  -0.3991458
   1.2915651   9.9368442   1.4037609   1.4970449   9.2399202   2.5534024
   5.6414943   6.8201629   1.5655012   6.3631878   6.2599121   2.1599558
   5.0189816   7.9223439   2.4249050   5.4911855   7.9281269   3.4072945
   5.1708870   8.8884758   1.9436420   6.2799385   7.4491826   0.4640819
   7.5503003   8.4106726   0.6960688   7.1308848   9.5293257   1.5696281
   7.9957896   8.9153625  -0.6219709   8.6083357   7.4301757   1.3883006
   8.1498752   6.5046218   2.3916765   7.7595748   7.0578890   3.2458785
   7.7064548   7.0565953   3.2204131   9.3163498   5.6785904   2.9087925
   9.0586005   5.2519082   3.8781257   9.4987463   4.5218476   2.0368538
  10.6418065   4.7073917   1.2150353  11.3603909   3.9103221   1.4058646
  10.2642344   4.4863165  -0.2406309   9.6713790   5.3163638  -1.1552045
   9.3921533   6.3204252  -0.8718404   9.5569557   4.7976228  -2.3417182
  10.1132067   3.5306190  -2.2098659  10.2942609   2.4796541  -3.1168894
   9.9162210   2.5376696  -4.4011480  10.0727323   1.7470485  -5.0098546
   9.4747684   3.3720172  -4.7604286  10.8782756   1.3635544  -2.6598884
  11.2513471   1.3117904  -1.3843346  11.7237640   0.4217983  -0.9955733
  11.1340588   2.2301281  -0.4434312  10.5434885   3.3423170  -0.9300151
  10.6782474   6.3758217   2.9063948  10.5383671   7.4479540   3.0444691
  11.1942453   6.1068933   1.4913599  11.3617029   7.0542625   0.9789648
  12.1313756   5.5528070   1.5449818  11.6481815   5.8757252   3.8149831
  13.1135002   6.5382487   3.8924652  13.7504737   6.4100741   2.5627149
  13.8956395   5.8134645   4.9187924  12.7909680   8.0526095   4.2958040
  11.6767522   8.7188616   3.6727227  11.8101382   9.7980949   3.7473136
  11.8285979   8.7502010   2.5938059  11.5579122  10.1387570   4.2020374
  10.9733316  10.7391767   3.5050000  10.7622446  10.1211006   5.4260475
  11.6032655  10.3021499   6.5557836  11.2993990  11.1990134   7.0955985
  11.3261730   9.1999071   7.5193078  11.8036955   7.9051687   7.5242719
  12.4789636   7.5756842   6.7484788  11.3615119   7.1779870   8.5201538
  10.5349369   8.0448896   9.2253876   9.7707693   7.8335838  10.4034359
   9.6655016   6.8124508  11.0810096   9.0752071   8.9903825  10.7749336
   8.5051474   8.9404534  11.5950174   9.1132724  10.1936089  10.1002502
   8.3735116  11.1826541  10.6200029   7.7868539  11.1360271  11.4408312
   8.3888443  12.0642260  10.1273604   9.8312864  10.3903931   8.9981462
  10.5136797   9.2752392   8.6234840  12.8712852  10.8084913   4.6111942
  13.6853584  10.4152668   4.0022951  13.0495326  10.3485173   6.0594869
  13.9820271   9.7917929   6.1522836  13.0790977  11.2178748   6.7163306
  12.8858799  12.2284168   4.6110681  14.2180077  13.0319425   5.0256548
  14.5713953  12.6577987   6.4132907  13.9327400  14.4811354   4.9315079
  15.2821900  12.5253240   3.9435958  15.3042548  11.1306044   3.5860071
  15.3711199  11.0338297   2.5023726  15.5099264  10.5308733   4.4726426
  16.3862830  10.8768269   2.5490829  16.6424690   9.8173824   2.5423429
  15.8352152  11.1283057   1.2206695  16.3334768  12.3567657   0.7117293
  16.8760758  12.1730833  -0.2156036  15.1734921  13.2300880   0.2621264
  14.3336417  14.0493468   0.9694926  14.4493068  14.1476960   2.0387683
  13.4827947  14.6971432   0.2302911  13.7755328  14.2805754  -1.0631054
  13.2230193  14.6055470  -2.3077426  12.2093958  15.4678574  -2.4645496
  11.8513652  15.6637533  -3.3884219  11.8034251  15.9219118  -1.6588690
  13.7476100  14.0137340  -3.3894836  14.7534847  13.1587914  -3.2276554
  15.1908500  12.6708140  -4.0861359  15.3523531  12.7769693  -2.1150150
  14.8051982  13.3872805  -1.0423345  17.6131525  11.7873065   2.6310599
  17.7726025  12.0907113   3.6657676  17.1897040  13.0020865   1.8028686
  17.2110087  13.8943559   2.4285687  17.8765125  13.1292656   0.9660772
  18.8146570  11.2846989   2.0652209  20.1635193  12.1630846   2.0985244
  19.9112443  13.4267076   1.3705038  21.2381196  11.3864704   1.4408724
  20.4042495  12.3737175   3.6662236  19.2760850  12.6628643   4.5131228
  19.1560240  13.7424764   4.6032510  18.8009406  13.5867796   4.1833973
  19.7347889  12.8232665   5.9533525  18.9815065  13.3748792   6.5158366
  19.7730226  11.5079000   6.5857676  21.1180991  11.0761185   6.7297563
  21.3377915  10.9159039   7.7852968  21.2323314   9.7146197   6.1353068
  21.3853676   9.3502257   4.8131128  21.4373135  10.1090596   4.0463829
  21.4525373   8.0560668   4.6214329  21.3366700   7.5227084   5.8997931
  21.3393831   6.1717195   6.3370821  21.4473409   5.1452762   5.6680088
  21.1955400   6.0848639   7.7269619  21.1843275   5.1704502   8.1315858
  21.0680318   7.1597329   8.5829985  20.9408376   6.8635114   9.8836421
  20.9172225   5.9426485  10.2978331  20.8382026   7.6441854  10.5161886
  21.0678439   8.4246039   8.1718992  21.2068547   8.5264948   6.8228645
  21.1476701  13.3786066   6.1437889  21.3936133  14.0401578   5.3131502
  22.0182970  12.1226075   6.0704739  22.7227940  12.2159652   5.2439949
  22.5680596  12.0059482   7.0044182  21.4180604  14.0116175   7.3857985
  22.8735161  14.6300198   7.6880023  23.8674565  13.5365741   7.6051829
  22.8541730  15.2170873   9.0464495  23.0363122  15.7216451   6.5296200
  22.6000214  15.3954559   5.1966346  22.4173831  16.3138075   4.6386259
  23.1531281  14.5287848   4.8346197  22.8485578  16.5712411   4.2659581
  22.8589402  16.2221318   3.2334300  21.7055662  17.4770558   4.3342902
  22.0474893  18.6366224   5.0792016  21.9339382  19.5196544   4.4503456
  21.0180267  18.8244684   6.1398706  20.9138063  18.2124740   7.3723482
  21.6493053  17.4825456   7.6767292  19.8791481  18.6022026   8.0749819
  19.2524803  19.5352748   7.2572015  18.0783520  20.3048469   7.4707001
  17.3340109  20.3197121   8.4497994  17.8019587  21.1292859   6.3734728
  16.9903916  21.7109416   6.4285553  18.5595454  21.2034941   5.2224056
  18.1241577  22.0575919   4.2861611  17.2996767  22.6393005   4.3302810
  18.6680538  22.1116213   3.4368327  19.6602389  20.4834922   5.0249906
  19.9429722  19.6765244   6.0825657  24.0522987  17.4502884   4.6111909
  24.8153944  16.8459787   5.1016943  23.4678408  18.4465482   5.6145727
  23.9976736  18.3606885   6.5632583  23.5781783  19.4596198   5.2277758
  24.6156759  18.2009002   3.5455505  25.8849793  19.1576555   3.8016520
  25.5038694  20.1727268   4.8090177  26.2444628  19.8031183   2.5192516
  26.9950947  18.1317955   4.3262977  26.6093812  17.0997442   5.2534949
  26.2290787  17.5555141   6.1676851  26.2090196  17.5553535   6.1591611
  27.8152785  16.2475177   5.6139413  27.6213738  15.7189430   6.5472735
  27.9604041  15.1898712   4.6179885  29.0499069  15.4804186   3.7548750
  29.7889138  14.6818648   3.8202959  28.5891099  15.4024450   2.3085053
  27.9320075  16.3103341   1.5205621  27.6571224  17.2745710   1.9219187
  27.7537968  15.9137707   0.2954180  28.3333771  14.6507816   0.2631065
  28.4736929  13.7019055  -0.7566705  28.0190155  13.8839365  -2.0039609
  28.1492331  13.1629605  -2.6991862  27.5460925  14.7421135  -2.2488587
  29.0984097  12.5562230  -0.4521342  29.5475275  12.3812063   0.7874470
  30.0538399  11.4652593   1.0540700  29.4746066  13.1959246   1.8234570
  28.8416332  14.3406227   1.4895222  29.1654116  16.9672100   5.6046840
  29.0200610  18.0166911   5.8607336  29.5995647  16.8545480   4.1419064
  29.7238133  17.8524450   3.7213555  30.5453626  16.3158835   4.0835368
  30.1942348  16.3952904   6.3989335  31.6528119  17.0742568   6.4594089
  32.2109675  17.0951569   5.0888523  32.5041385  16.2632255   7.3582263
  31.3352087  18.5328986   7.0351608  30.1772348  19.2380681   6.5499480
  30.3487097  20.3120950   6.6217992  30.2640479  19.3826545   5.4730734
  30.0716870  20.5937448   7.2292125  29.4388078  21.2511313   6.6330529
  29.3507269  20.4356081   8.4888984  30.2551931  20.5160113   9.5806288
  29.9724028  21.3468939  10.2269746  30.0753946  19.3051271  10.4816455
  30.5596300  18.0273320  10.3833782  31.1869499  17.7502578   9.5490515
  30.2427003  17.2646637  11.3873166  29.4932652  18.0924927  12.2150515
  28.8633485  17.8765786  13.4465487  28.8872652  16.7035725  14.0939166
  28.4139888  16.6065292  14.9808740  29.3785668  15.9164837  13.6949019
  28.2059455  18.9084971  13.9929616  28.1856598  20.0702647  13.3458265
  27.6616373  20.9147480  13.7684934  28.7372911  20.3906644  12.1902111
  29.3921365  19.3346688  11.6624308  31.3982873  21.2430060   7.6285791
  32.1796528  20.9298419   6.9361233  31.6685626  20.6405861   9.0087753
  32.6121039  20.0951965   8.9893003  31.7259195  21.4384929   9.7491503
  31.3943518  22.6554937   7.7744021  32.7382529  23.4376200   8.1919045
  33.1786066  22.9301214   9.5105909  32.4290261  24.8831197   8.2647802
  33.7425213  23.0649235   7.0034012  33.7613873  21.7148467   6.5028655
  33.8024374  21.7311170   5.4137602  34.0273617  21.0314870   7.3093255
  34.7828665  21.5893324   5.3842832  35.0519727  20.5412383   5.2532108
  34.1503306  21.9649918   4.1231813  34.6013110  23.2484137   3.7159419
  35.0899894  23.1710844   2.7446989  33.4047734  24.0931021   3.4422682
  32.6073379  24.7889605   4.3278628  32.8237254  24.7616827   5.3856125
  31.6220810  25.4392664   3.7599973  31.7725961  25.1584850   2.4069977
  31.0054268  25.5796488   1.2887525  30.0119780  26.3044769   1.2645957
  31.5144792  25.0561512   0.0942581  31.0389662  25.2959549  -0.7521343
  32.6195370  24.2359904  -0.0086190  32.9451279  23.8409180  -1.2469677
  32.4630162  24.0697617  -2.1044636  33.7475728  23.2332667  -1.3302922
  33.3382356  23.8442149   1.0396585  32.8564812  24.3445712   2.2089133
  36.0004773  22.5098905   5.4886802  36.2173827  22.7087001   6.5382160
  35.5126060  23.7948052   4.8164630  35.5595621  24.6185315   5.5287615
  36.1465751  24.0201250   3.9589000  37.1725443  22.0909274   4.8052110
  38.5094358  22.9868821   4.8508870  38.1977562  24.3133823   4.2732599
  39.5529291  22.3023850   4.0552822  38.8404631  23.0403808   6.4153539
  37.7611408  23.2196557   7.3515821  37.5850540  24.2844390   7.5043238
  37.2551847  24.1632419   7.1472439  38.3027882  23.2404173   8.7716480
  37.5772691  23.7170230   9.4308660  38.3957981  21.8681607   9.2614034
  39.7525774  21.4496699   9.2817564  40.0368942  21.1864003  10.3005559
  39.8907173  20.1320173   8.5367008  39.9945120  19.8587274   7.1982539
  39.9844868  20.6652648   6.4800628  40.1610022  18.5978892   6.9288701
  40.1689277  17.9856083   8.1767275  40.3092572  16.6500635   8.5724893
  40.4771052  15.6372243   7.7113365  40.5729815  14.6924771   8.0553739
  40.5077406  15.8185609   6.7182216  40.2713816  16.3882686   9.8861219
  40.1045525  17.3975698  10.7360502  40.0711479  17.2086342  11.7988703
  39.9624109  18.6853722  10.4835410  40.0042572  18.9208560   9.1548959
  39.7171577  23.8002119   8.9362406  39.9044900  24.5479447   8.1655909
  40.5981492  22.5751880   8.6831195  41.2508294  22.7661520   7.8312742
  41.2041020  22.3739962   9.5665466  40.0528656  24.3077174  10.2192604
  41.5155741  24.9195953  10.4988838  42.5169650  23.8595686  10.2459811
  41.5696311  25.3639468  11.9095684  41.5947674  26.1270451   9.4520832
  41.0840464  25.9308415   8.1200669  40.9048809  26.8991628   7.6527836
  41.6258219  25.1165345   7.6389391  41.2613032  27.2003058   7.3030966
  41.2146387  26.9590609   6.2411537  40.1127191  28.0723601   7.5308579
  40.4833232  29.1558409   8.3705728  40.3209800  30.0963134   7.8440224
  39.5165865  29.2143542   9.5028688  39.4940309  28.4774535  10.6694315
  40.2558179  27.7343668  10.8535642  38.4981271  28.7733262  11.4673884
  37.8117056  29.7731187  10.7881672  36.6424746  30.4942076  11.1477918
  35.9577165  30.3944828  12.1646798  36.2904247  31.4212730  10.1595554
  35.4760794  31.9786200  10.3214336  36.9769883  31.6274546   8.9803523
  36.4754543  32.5644906   8.1642479  35.6475648  33.1227666   8.3159950
  36.9669828  32.7156137   7.2949594  38.0732348  30.9526161   8.6460800
  38.4290208  30.0471095   9.5963824  42.4719372  28.0621946   7.6669850
  43.2707326  27.4255048   8.0473148  41.9354288  28.9390886   8.8001732
  42.5219669  28.7666380   9.7025773  42.0092981  29.9883739   8.5144392
  42.9609372  28.9286380   6.6537938  44.2306840  29.8781942   6.9334118
  43.8971369  30.7772728   8.0607112  44.5046135  30.6583703   5.7059391
  45.3833789  28.8253791   7.2839438  45.0671213  27.6966028   8.1202716
  44.7023324  28.0493744   9.0849381  44.7155810  28.0493146   9.0898666
  46.3033659  26.8351249   8.3201593  46.1723671  26.2101194   9.2035090
  46.4026038  25.8880268   7.2134722  47.4348186  26.2862129   6.3233153
  48.1867505  25.4994191   6.2628744  46.8896423  26.3480201   4.9057957
  46.1749504  27.3191292   4.2553623  45.9119530  28.2317546   4.7695109
  45.9291761  27.0468169   3.0081893  46.5222000  25.8050822   2.8119338
  46.6137995  24.9685108   1.6931141  46.0832167  25.2686317   0.4997954
  46.1811230  24.6252819  -0.2726143  45.5853928  26.1381906   0.3727620
  47.2704356  23.8098016   1.8408423  47.7949180  23.5173403   3.0275536
  48.3281172  22.5887381   3.1682510  47.7733033  24.2201085   4.1447151
  47.1066856  25.3806924   3.9681725  47.6410548  27.5776340   8.3070949
  47.4975746  28.5923980   8.6782635  47.9886331  27.6237150   6.8178112
  48.0745722  28.6616316   6.4961859  48.9362030  27.1120255   6.6493313
  48.7227742  26.9471192   8.9769723  50.1733939  27.6440522   9.0226515
  50.6485034  27.8158901   7.6315574  51.0872982  26.7616260   9.7819304
  49.8717182  29.0297115   9.7635550  48.6777826  29.7586284   9.4217991
  48.8761269  30.8289257   9.4785738  48.6983312  30.0143942   8.3624303
  48.5952810  31.0353300  10.2425467  47.9194671  31.7381175   9.7552433
  47.9528465  30.7352500  11.5188026  48.9196841  30.7206599  12.5587118
  48.6651431  31.4754109  13.3027945  48.8097255  29.4206387  13.3386176
  49.3038419  28.1691136  13.0808684  49.8838460  27.9909921  12.1874091
  49.0573073  27.3017067  14.0172580  48.3478486  28.0259279  14.9681896
  47.7953593  27.6730114  16.2052041  47.8731163  26.4405351  16.7253544
  47.4548801  26.2441265  17.6234655  48.3499589  25.7079868  16.2192982
  47.1583260  28.6307858  16.8925603  47.0843535  29.8521303  16.3712687
  46.5755140  30.6387130  16.9086411  47.5618676  30.2996956  15.2249417
  48.1977729  29.3160177  14.5537458  49.9347667  31.6654850  10.6293087
  50.6774597  31.4398797   9.8640583  50.2946929  30.9301276  11.9218266
  51.2424174  30.4077224  11.7914028  50.3857018  31.6489470  12.7361461
  49.9211361  33.0552714  10.9203574  51.2772412  33.8160410  11.3378601
  51.8020241  33.1846372  12.5692545  50.9541084  35.2403011  11.5775881
  52.2136152  33.5862967  10.0609814  52.2201822  32.2952012   9.4233071
  52.2313282  32.4239971   8.3410005  52.5426550  31.5380324  10.1380150
  53.1746849  32.3044599   8.2404128  53.4491249  31.2806371   7.9863088
  52.4632295  32.7951731   7.0637092  52.8723659  34.1219369   6.7658768
  53.3032201  34.1538499   5.7651544  51.6497335  35.0162972   6.6406216
  50.8848464  35.6376249   7.5923571  51.1260962  35.5224555   8.6387490
  49.9387447  36.3835823   7.1040554  50.0822498  36.2507787   5.7278765
  49.3779644  36.7963662   4.6479155  48.3359802  37.6271168   4.7883526
  47.8658018  37.9900471   3.9714590  48.0207807  37.8903493   5.7110968
  49.7804813  36.4594709   3.4149988  50.8152315  35.6345708   3.2818406
  51.1559236  35.3502219   2.2972221  51.5508032  35.0621285   4.2165298
  51.1244358  35.4179621   5.4470154  54.3842600  33.2325683   8.3686504
  54.6607603  33.3269304   9.4187657  53.8404739  34.5700284   7.8622935
  53.9190908  35.3172041   8.6520068  54.4191852  34.8940732   6.9973147
  55.5188400  32.9082815   7.5787343  56.2645673  33.5048979   7.6763986
   1.8660260   1.5000000  -0.0000012   1.9580760   1.7210550   0.9296550
   0.7884380   2.1108760   1.6736890   0.0596090   1.3005550   1.6566980
   0.3509390   3.0018620   1.2233120   1.1658520   2.4133220   3.1146900
   0.3918980   3.0298930   3.5717850   1.1422280   1.1699970   3.8796640
   2.4682030   0.7379320   4.1470790   2.6232300   0.6848500   5.2246920
   2.6329540  -0.7170270   3.7034000   2.8757040  -1.0789510   2.4045600
   2.9590330  -0.3213030   1.6394280   3.0670130  -2.3610060   2.0649520
   3.2587260  -2.6266470   1.0253460   3.0229400  -3.4012930   3.0596680
   3.1861630  -4.6009210   2.8425220   2.7733610  -2.9469170   4.3385950
   2.7305700  -3.6983960   5.1269770   2.5725860  -1.6354860   4.7183820
   2.3574910  -1.3301670   5.8798100   2.5756630   2.9669230   3.3311560
   2.8819400   3.5357980   2.4532750   3.4249300   1.6988420   3.4389330
   4.1778120   1.6970740   2.6507290   4.0708750   1.6639010   4.7142500
   4.5914070   0.8577950   4.7432370   2.7856320   3.7213670   4.5156930
   4.2326640   4.3486871   4.8392172   5.2086688   3.2396850   4.9282610
   4.1458119   5.0732496   6.1267992   4.4831639   5.3124941   3.5868898
   4.1187380   4.8559571   2.2706957   3.0500035   4.6436042   2.2421870
   4.6752490   3.9493734   2.0329937   4.4432243   5.9258895   1.2409612
   4.5067816   5.4718009   0.2520915   3.3157026   6.8487259   1.1478633
   3.6359476   8.0745368   1.7891353   3.5759319   8.8892288   1.0674884
   2.5411512   8.4269514   2.7981563   2.4847696   7.8898252   4.0572106
   3.2358785   7.1826158   4.3767266   1.5400272   8.2645243   4.9305152
   1.5137342   7.8241704   5.9272584   0.5513540   9.2474392   4.5699564
  -0.3502404   9.6518262   5.3024172   0.6836267   9.7338140   3.2852993
  -0.0427750  10.4811660   2.9660716   1.6443516   9.3678450   2.3647154
   1.6804232   9.8560917   1.2472574   5.6414943   6.8201629   1.5655012
   6.3631878   6.2599121   2.1599558   5.0189816   7.9223439   2.4249050
   5.4911855   7.9281269   3.4072945   5.2182698   9.1898378   1.7935230
   4.8158226   9.8520525   2.3601875   6.2799385   7.4491826   0.4640819
   7.5503003   8.4106726   0.6960688   7.1308848   9.5293257   1.5696281
   7.9957896   8.9153625  -0.6219709   8.6083357   7.4301757   1.3883006
   8.1498752   6.5046218   2.3916765   7.4034403   5.8387640   1.9585848
   7.7064548   7.0565953   3.2204131   9.3163498   5.6785904   2.9087925
   9.0586005   5.2519082   3.8781257   9.4987463   4.5218476   2.0368538
  10.6418065   4.7073917   1.2150353  11.3603909   3.9103221   1.4058646
  10.2617501   4.4848624  -0.2502075   9.6654278   5.4472343  -1.0216615
   9.4427462   6.4161660  -0.5997794   9.3965683   5.2313859  -2.3165447
   8.9215533   6.0111479  -2.9118867   9.7279516   3.9756760  -2.9386192
   9.5199112   3.6881070  -4.1162962  10.3244522   3.0666413  -2.0887702
  10.5940438   2.1001506  -2.5145835  10.6134890   3.2598754  -0.7532858
  11.1449810   2.3921082  -0.0803112  10.6782474   6.3758217   2.9063948
  10.5383671   7.4479540   3.0444691  11.1942453   6.1068933   1.4913599
  11.3617029   7.0542625   0.9789648  12.4236910   5.3799723   1.5617079
  12.7139558   5.2313701   0.6587881  11.6481815   5.8757252   3.8149831
  13.1135002   6.5382487   3.8924652  13.7504737   6.4100741   2.5627149
  13.8956395   5.8134645   4.9187924  12.7909680   8.0526095   4.2958040
  11.6767522   8.7188616   3.6727227  10.7579639   8.1758302   3.8941836
  11.8285979   8.7502010   2.5938059  11.5579122  10.1387570   4.2020374
  10.9733316  10.7391767   3.5050000  10.7622446  10.1211006   5.4260475
  11.6032655  10.3021499   6.5557836  11.2993990  11.1990134   7.0955985
  11.3268842   9.2002979   7.5199592  11.8931701   7.9734449   7.3658433
  12.5555640   7.7850946   6.5338827  11.6394811   6.9691699   8.2471346
  12.1021742   5.9921103   8.1079588  10.7563706   7.2676952   9.3315236
  10.4664764   6.3393326  10.2239933   9.8388825   6.5894935  10.9747568
  10.8662750   5.4151552  10.1455165  10.2069325   8.4704219   9.4745874
  10.4733590   9.4615707   8.5822651   9.9807353  10.5951675   8.6816636
  12.8712852  10.8084913   4.6111942  13.6853584  10.4152668   4.0022951
  13.0495326  10.3485173   6.0594869  13.9820271   9.7917929   6.1522836
  13.0883192  11.4890504   6.9212176  13.2005787  11.1608255   7.8163527
  12.8858799  12.2284168   4.6110681  14.2180077  13.0319425   5.0256548
  14.5713953  12.6577987   6.4132907  13.9327400  14.4811354   4.9315079
  15.2821900  12.5253240   3.9435958  15.3042548  11.1306044   3.5860071
  14.3371024  10.8458598   3.1717166  15.5099264  10.5308733   4.4726426
  16.3862830  10.8768269   2.5490829  16.6424690   9.8173824   2.5423429
  15.8352152  11.1283057   1.2206695  16.3334768  12.3567657   0.7117293
  16.8760758  12.1730833  -0.2156036  15.1658606  13.2358334   0.2591689
  14.4273843  14.0001084   1.1237137  14.6598684  13.9996705   2.1783943
  13.4462092  14.7980720   0.6808276  12.8710854  15.3976943   1.3863669
  13.1373745  14.8763850  -0.7234826  12.2578861  15.5779575  -1.2206707
  13.9295716  14.0744621  -1.5195630  13.7332632  14.0997496  -2.5914418
  14.9456577  13.2436987  -1.0931809  15.5938499  12.5695078  -1.8765786
  17.6131525  11.7873065   2.6310599  17.7726025  12.0907113   3.6657676
  17.1897040  13.0020865   1.8028686  17.2110087  13.8943559   2.4285687
  18.0907459  13.1689356   0.7050595  17.7932119  13.9370167   0.2119818
  18.8146570  11.2846989   2.0652209  20.1635193  12.1630846   2.0985244
  19.9112443  13.4267076   1.3705038  21.2381196  11.3864704   1.4408724
  20.4042495  12.3737175   3.6662236  19.2760850  12.6628643   4.5131228
  18.5581551  11.8447768   4.4547319  18.8009406  13.5867796   4.1833973
  19.7347889  12.8232665   5.9533525  18.9815065  13.3748792   6.5158366
  19.7730226  11.5079000   6.5857676  21.1180991  11.0761185   6.7297563
  21.3377915  10.9159039   7.7852968  21.2333422   9.7145969   6.1355534
  21.3815147   9.5436315   4.7945033  21.4173356  10.4029427   4.1412796
  21.4865092   8.2999417   4.2543065  21.6047810   8.1817968   3.1772021
  21.4335203   7.1945894   5.1600047  21.5293226   5.9596804   4.7036939
  21.4874717   5.2064454   5.3752489  21.6403326   5.7896816   3.7143110
  21.2883921   7.3709813   6.4702432  21.1851341   8.6231204   6.9908999
  21.0489218   8.8282043   8.2062133  21.1476701  13.3786066   6.1437889
  21.3936133  14.0401578   5.3131502  22.0182970  12.1226075   6.0704739
  22.7227940  12.2159652   5.2439949  22.7395446  11.9695588   7.2957404
  23.2713345  11.1748131   7.2110088  21.4180604  14.0116175   7.3857985
  22.8735161  14.6300198   7.6880023  23.8674565  13.5365741   7.6051829
  22.8541730  15.2170873   9.0464495  23.0363122  15.7216451   6.5296200
  22.6000214  15.3954559   5.1966346  21.5343456  15.1667675   5.2083345
  23.1531281  14.5287848   4.8346197  22.8485578  16.5712411   4.2659581
  22.8589402  16.2221318   3.2334300  21.7055662  17.4770558   4.3342902
  22.0474893  18.6366224   5.0792016  21.9339382  19.5196544   4.4503456
  21.0103169  18.8628512   6.1810148  21.0361205  18.1986024   7.3789334
  21.8140950  17.4768589   7.5795382  20.1403386  18.4637623   8.3395912
  20.1792712  17.9232031   9.2853080  19.1192040  19.4593774   8.1405091
  18.2577037  19.7693148   8.9618836  19.1682842  20.0772231   6.9075216
  18.4144652  20.8393330   6.7099207  20.0770856  19.8258941   5.8998936
  20.0400906  20.4266373   4.8386975  24.0522987  17.4502884   4.6111909
  24.8153944  16.8459787   5.1016943  23.4678408  18.4465482   5.6145727
  23.9976736  18.3606885   6.5632583  23.6125950  19.7756236   5.1071233
  23.2360654  20.3685015   5.7615863  24.6156759  18.2009002   3.5455505
  25.8849793  19.1576555   3.8016520  25.5038694  20.1727268   4.8090177
  26.2444628  19.8031183   2.5192516  26.9950947  18.1317955   4.3262977
  26.6093812  17.0997442   5.2534949  25.8471841  16.4676181   4.7978940
  26.2090196  17.5553535   6.1591611  27.8152785  16.2475177   5.6139413
  27.6213738  15.7189430   6.5472735  27.9604041  15.1898712   4.6179885
  29.0499069  15.4804186   3.7548750  29.7889138  14.6818648   3.8202959
  28.5860781  15.4019323   2.2989899  27.9323266  16.4266993   1.6670383
  27.7225983  17.3428886   2.1990265  27.5895597  16.3395307   0.3745559
  27.0697704  17.1669589  -0.1084368  27.8995841  15.1607069  -0.3921632
  27.6254467  14.9913638  -1.5792064  28.5574939  14.1809599   0.3231345
  28.8137785  13.2684969  -0.2152244  28.9231163  14.2418636   1.6524243
  29.5050532  13.3200358   2.2001297  29.1654116  16.9672100   5.6046840
  29.0200610  18.0166911   5.8607336  29.5995647  16.8545480   4.1419064
  29.7238133  17.8524450   3.7213555  30.8403817  16.1478592   4.0653297
  31.0781953  16.0980992   3.1365837  30.1942348  16.3952904   6.3989335
  31.6528119  17.0742568   6.4594089  32.2109675  17.0951569   5.0888523
  32.5041385  16.2632255   7.3582263  31.3352087  18.5328986   7.0351608
  30.1772348  19.2380681   6.5499480  29.2804399  18.6577597   6.7669760
  30.2640479  19.3826545   5.4730734  30.0716870  20.5937448   7.2292125
  29.4388078  21.2511313   6.6330529  29.3507269  20.4356081   8.4888984
  30.2551931  20.5160113   9.5806288  29.9724028  21.3468939  10.2269746
  30.0511781  19.3161145  10.4401197  30.6231979  18.1225421  10.1274249
  31.2371960  18.0330890   9.2434541  30.4356190  17.0286147  10.9133879
  30.9018764  16.0799671  10.6473579  29.6149343  17.1975704  12.0721940
  29.3908956  16.1773056  12.8792035  28.8059853  16.3372149  13.6869222
  29.7973068  15.2738335  12.6825581  29.0593861  18.3686018  12.3704436
  29.2591918  19.4508476  11.5714319  28.7586485  20.5586832  11.8158832
  31.3982873  21.2430060   7.6285791  32.1796528  20.9298419   6.9361233
  31.6685626  20.6405861   9.0087753  32.6121039  20.0951965   8.9893003
  31.7438100  21.6873811   9.9800929  31.9135168  21.2713949  10.8284771
  31.3943518  22.6554937   7.7744021  32.7382529  23.4376200   8.1919045
  33.1786066  22.9301214   9.5105909  32.4290261  24.8831197   8.2647802
  33.7425213  23.0649235   7.0034012  33.7613873  21.7148467   6.5028655
  32.7750411  21.4556179   6.1181297  34.0273617  21.0314870   7.3093255
  34.7828665  21.5893324   5.3842832  35.0519727  20.5412383   5.2532108
  34.1503306  21.9649918   4.1231813  34.6013110  23.2484137   3.7159419
  35.0899894  23.1710844   2.7446989  33.4053935  24.0938989   3.4420165
  32.7358168  24.7118973   4.4516425  33.0688907  24.5938452   5.4721940
  31.6444564  25.4831653   4.1992958  31.1200747  25.9710074   5.0209613
  31.2428536  25.6085680   2.8325880  30.1920400  26.3420317   2.5160132
  29.9406697  26.4055102   1.5398554  29.6673699  26.8174748   3.2362746
  31.9035891  25.0006102   1.8514065  32.9928444  24.2334822   2.1246014
  33.6347151  23.6511327   1.2377694  36.0004773  22.5098905   5.4886802
  36.2173827  22.7087001   6.5382160  35.5126060  23.7948052   4.8164630
  35.5595621  24.6185315   5.5287615  36.3443265  24.0904078   3.6914030
  36.0079379  24.8991330   3.2984567  37.1725443  22.0909274   4.8052110
  38.5094358  22.9868821   4.8508870  38.1977562  24.3133823   4.2732599
  39.5529291  22.3023850   4.0552822  38.8404631  23.0403808   6.4153539
  37.7611408  23.2196557   7.3515821  37.0517237  22.3982910   7.2506503
  37.2551847  24.1632419   7.1472439  38.3027882  23.2404173   8.7716480
  37.5772691  23.7170230   9.4308660  38.3957981  21.8681607   9.2614034
  39.7525774  21.4496699   9.2817564  40.0368942  21.1864003  10.3005559
  39.8916259  20.1233488   8.5317989  39.9837796  20.0429042   7.1672705
  39.9596238  20.9426798   6.5704283  40.1582625  18.8658339   6.5511052
  40.2289791  18.8248576   5.4641736  40.2545420  17.6447992   7.3083394
  40.4142189  16.5223406   6.8313805  40.1513890  17.8194216   8.6733547
  40.2184509  16.9227565   9.2894676  39.9717536  19.0166791   9.3357036
  39.8916697  19.0707810  10.5518689  39.7171577  23.8002119   8.9362406
  39.9044900  24.5479447   8.1655909  40.5981492  22.5751880   8.6831195
  41.2508294  22.7661520   7.8312742  41.3931142  22.3112388   9.8421111
  41.9292115  21.5396554   9.6449835  40.0528656  24.3077174  10.2192604
  41.5155741  24.9195953  10.4988838  42.5169650  23.8595686  10.2459811
  41.5696311  25.3639468  11.9095684  41.5947674  26.1270451   9.4520832
  41.0840464  25.9308415   8.1200669  40.0240344  25.6818461   8.1698258
  41.6258219  25.1165345   7.6389391  41.2613032  27.2003058   7.3030966
  41.2146387  26.9590609   6.2411537  40.1127191  28.0723601   7.5308579
  40.4833232  29.1558409   8.3705728  40.3209800  30.0963134   7.8440224
  39.5170922  29.2151762   9.5032581  39.6531302  28.4034260  10.5859191
  40.4719197  27.7008490  10.6345931  38.7699949  28.4592943  11.6186590
  38.8945643  27.8010667  12.4784957  37.7034659  29.4053650  11.5074517
  36.8102949  29.5126356  12.4734416  36.0724651  30.1924995  12.3572830
  36.8756389  28.9280489  13.2944715  37.5780222  30.1954166  10.4449154
  38.4718738  30.1241548   9.4223943  38.3886280  30.8434540   8.4157769
  42.4719372  28.0621946   7.6669850  43.2707326  27.4255048   8.0473148
  41.9354288  28.9390886   8.8001732  42.5219669  28.7666380   9.7025773
  42.0323393  30.3156737   8.4253109  41.6878182  30.8310937   9.1582829
  42.9609372  28.9286380   6.6537938  44.2306840  29.8781942   6.9334118
  43.8971369  30.7772728   8.0607112  44.5046135  30.6583703   5.7059391
  45.3833789  28.8253791   7.2839438  45.0671213  27.6966028   8.1202716
  44.2874095  27.1000294   7.6467214  44.7155810  28.0493146   9.0898666
  46.3033659  26.8351249   8.3201593  46.1723671  26.2101194   9.2035090
  46.4026038  25.8880268   7.2134722  47.4348186  26.2862129   6.3233153
  48.1867505  25.4994191   6.2628744  46.8860554  26.3484270   4.8964702
  46.1824883  27.4198629   4.4128176  45.9929422  28.2725657   5.0479320
  45.7644188  27.4590162   3.1403069  45.2060177  28.3214875   2.7763954
  46.0434968  26.3710684   2.2391498  45.7012871  26.3190047   1.0588610
  46.7555984  25.3359494   2.8099742  46.9911855  24.4884944   2.1662200
  47.1990178  25.2673405   4.1149924  47.8245394  24.3055415   4.5297982
  47.6410548  27.5776340   8.3070949  47.4975746  28.5923980   8.6782635
  47.9886331  27.6237150   6.8178112  48.0745722  28.6616316   6.4961859
  49.2317747  26.9524155   6.5967779  49.4144073  27.0026034   5.6556472
  48.7227742  26.9471192   8.9769723  50.1733939  27.6440522   9.0226515
  50.6485034  27.8158901   7.6315574  51.0872982  26.7616260   9.7819304
  49.8717182  29.0297115   9.7635550  48.6777826  29.7586284   9.4217991
  47.8031614  29.1421200   9.6292965  48.6983312  30.0143942   8.3624303
  48.5952810  31.0353300  10.2425467  47.9194671  31.7381175   9.7552433
  47.9528465  30.7352500  11.5188026  48.9196841  30.7206599  12.5587118
  48.6651431  31.4754109  13.3027945  48.7829347  29.4353574  13.2999244
  49.3507873  28.2912378  12.8328769  49.9120900  28.3045469  11.9102925
  49.2246782  27.1191735  13.5110823  49.6865582  26.2118453  13.1218230
  48.4724285  27.1528343  14.7267666  48.3102232  26.0511794  15.4355994
  47.7724889  26.1163093  16.2880667  48.7159179  25.1805305  15.1233755
  47.9204489  28.2763299  15.1761855  48.0581360  29.4383463  14.4831069
  47.5586736  30.5055515  14.8693845  49.9347667  31.6654850  10.6293087
  50.6774597  31.4398797   9.8640583  50.2946929  30.9301276  11.9218266
  51.2424174  30.4077224  11.7914028  50.4140893  31.8731658  12.9901540
  50.6394915  31.3757821  13.7797133  49.9211361  33.0552714  10.9203574
  51.2772412  33.8160410  11.3378601  51.8020241  33.1846372  12.5692545
  50.9541084  35.2403011  11.5775881  52.2136152  33.5862967  10.0609814
  52.2201822  32.2952012   9.4233071  51.2161082  32.0579552   9.0716684
  52.5426550  31.5380324  10.1380150  53.1746849  32.3044599   8.2404128
  53.4491249  31.2806371   7.9863088  52.4632295  32.7951731   7.0637092
  52.8723659  34.1219369   6.7658768  53.3032201  34.1538499   5.7651544
  51.6513299  34.9680381   6.6506247  51.0351609  35.4664643   7.7558427
  51.4300120  35.2508773   8.7376852  49.9207407  36.2385389   7.6482828
  49.4399823  36.6295438   8.5449916  49.4367498  36.4955857   6.3274570
  48.3594629  37.2374153   6.1498627  48.0495213  37.3957389   5.2017222
  47.8725309  37.6264706   6.9446172  50.0456594  36.0040629   5.2520336
  51.1591679  35.2339301   5.3808450  51.7545409  34.7578513   4.4028471
  54.3842600  33.2325683   8.3686504  54.6607603  33.3269304   9.4187657
  53.8404739  34.5700284   7.8622935  53.9190908  35.3172041   8.6520068
  54.5997001  34.9951511   6.7275045  54.2299713  35.8333002   6.4404381
  55.5188400  32.9082815   7.5787343  56.2645673  33.5048979   7.6763986
