%VERSION  VERSION_STAMP = V0001.000  DATE = 08/25/26  02:18:26                  
%FLAG TITLE                                                                     
%FORMAT(20a4)                                                                   
DG5                                                                             
%FLAG POINTERS                                                                  
%FORMAT(10I8)                                                                   
     942      15     326     689     761    1063    1702    2244       0       0
    5257      30     689    1063    2244      55     119      82      30       0
       0       0       0       0       0       0       0       0      33       0
       0
%FLAG ATOM_NAME                                                                 
%FORMAT(20a4)                                                                   
HO5'O5' C5' H5' H5''C4' H4' O4' C1' H1' N9  C8  H8  N7  C5  C6  O6  N1  H1  C2  
N2  H21 H22 N3  C4  C3' H3' C2' H2' H2''O3' P   OP1 OP2 O5' C5' H5' H5''C4' H4' 
O4' C1' H1' N9  C8  H8  N7  C5  C6  O6  N1  H1  C2  N2  H21 H22 N3  C4  C3' H3' 
C2' H2' H2''O3' P   OP1 OP2 O5' C5' H5' H5''C4' H4' O4' C1' H1' N9  C8  H8  N7  
C5  C6  N6  H61 H62 N1  C2  H2  N3  C4  C3' H3' C2' H2' H2''O3' P   OP1 OP2 O5' 
C5' H5' H5''C4' H4' O4' C1' H1' N9  C8  H8  N7  C5  C6  O6  N1  H1  C2  N2  H21 
H22 N3  C4  C3' H3' C2' H2' H2''O3' P   OP1 OP2 O5' C5' H5' H5''C4' H4' O4' C1' 
H1' N9  C8  H8  N7  C5  C6  N6  H61 H62 N1  C2  H2  N3  C4  C3' H3' C2' H2' H2''
O3' P   OP1 OP2 O5' C5' H5' H5''C4' H4' O4' C1' H1' N9  C8  H8  N7  C5  C6  O6  
N1  H1  C2  N2  H21 H22 N3  C4  C3' H3' C2' H2' H2''O3' P   OP1 OP2 O5' C5' H5' 
H5''C4' H4' O4' C1' H1' N9  C8  H8  N7  C5  C6  O6  N1  H1  C2  N2  H21 H22 N3  
C4  C3' H3' C2' H2' H2''O3' P   OP1 OP2 O5' C5' H5' H5''C4' H4' O4' C1' H1' N9  
C8  H8  N7  C5  C6  N6  H61 H62 N1  C2  H2  N3  C4  C3' H3' C2' H2' H2''O3' P   
OP1 OP2 O5' C5' H5' H5''C4' H4' O4' C1' H1' N9  C8  H8  N7  C5  C6  N6  H61 H62 
N1  C2  H2  N3  C4  C3' H3' C2' H2' H2''O3' P   OP1 OP2 O5' C5' H5' H5''C4' H4' 
O4' C1' H1' N9  C8  H8  N7  C5  C6  O6  N1  H1  C2  N2  H21 H22 N3  C4  C3' H3' 
C2' H2' H2''O3' P   OP1 OP2 O5' C5' H5' H5''C4' H4' O4' C1' H1' N9  C8  H8  N7  
C5  C6  N6  H61 H62 N1  C2  H2  N3  C4  C3' H3' C2' H2' H2''O3' P   OP1 OP2 O5' 
C5' H5' H5''C4' H4' O4' C1' H1' N9  C8  H8  N7  C5  C6  O6  N1  H1  C2  N2  H21 
H22 N3  C4  C3' H3' C2' H2' H2''O3' P   OP1 OP2 O5' C5' H5' H5''C4' H4' O4' C1' 
H1' N9  C8  H8  N7  C5  C6  N6  H61 H62 N1  C2  H2  N3  C4  C3' H3' C2' H2' H2''
O3' P   OP1 OP2 O5' C5' H5' H5''C4' H4' O4' C1' H1' N9  C8  H8  N7  C5  C6  N6  
H61 H62 N1  C2  H2  N3  C4  C3' H3' C2' H2' H2''O3' P   OP1 OP2 O5' C5' H5' H5''
C4' H4' O4' C1' H1' N9  C8  H8  N7  C5  C6  N6  H61 H62 N1  C2  H2  N3  C4  C3' 
H3' C2' H2' H2''O3' HO3'HO5'O5' C5' H5' H5''C4' H4' O4' C1' H1' N1  C6  H6  C5  
H5  C4  O4  N3  H3  C2  O2  C3' H3' C2' H2' O2' HO2'O3' P   OP1 OP2 O5' C5' H5' 
H5''C4' H4' O4' C1' H1' N1  C6  H6  C5  H5  C4  O4  N3  H3  C2  O2  C3' H3' C2' 
H2' O2' HO2'O3' P   OP1 OP2 O5' C5' H5' H5''C4' H4' O4' C1' H1' N1  C6  H6  C5  
H5  C4  O4  N3  H3  C2  O2  C3' H3' C2' H2' O2' HO2'O3' P   OP1 OP2 O5' C5' H5' 
H5''C4' H4' O4' C1' H1' N1  C6  H6  C5  H5  C4  N4  H41 H42 N3  C2  O2  C3' H3' 
C2' H2' O2' HO2'O3' P   OP1 OP2 O5' C5' H5' H5''C4' H4' O4' C1' H1' N1  C6  H6  
C5  H5  C4  O4  N3  H3  C2  O2  C3' H3' C2' H2' O2' HO2'O3' P   OP1 OP2 O5' C5' 
H5' H5''C4' H4' O4' C1' H1' N1  C6  H6  C5  H5  C4  N4  H41 H42 N3  C2  O2  C3' 
H3' C2' H2' O2' HO2'O3' P   OP1 OP2 O5' C5' H5' H5''C4' H4' O4' C1' H1' N1  C6  
H6  C5  H5  C4  O4  N3  H3  C2  O2  C3' H3' C2' H2' O2' HO2'O3' P   OP1 OP2 O5' 
C5' H5' H5''C4' H4' O4' C1' H1' N1  C6  H6  C5  H5  C4  O4  N3  H3  C2  O2  C3' 
H3' C2' H2' O2' HO2'O3' P   OP1 OP2 O5' C5' H5' H5''C4' H4' O4' C1' H1' N1  C6  
H6  C5  H5  C4  N4  H41 H42 N3  C2  O2  C3' H3' C2' H2' O2' HO2'O3' P   OP1 OP2 
O5' C5' H5' H5''C4' H4' O4' C1' H1' N1  C6  H6  C5  H5  C4  N4  H41 H42 N3  C2  
O2  C3' H3' C2' H2' O2' HO2'O3' P   OP1 OP2 O5' C5' H5' H5''C4' H4' O4' C1' H1' 
N1  C6  H6  C5  H5  C4  O4  N3  H3  C2  O2  C3' H3' C2' H2' O2' HO2'O3' P   OP1 
OP2 O5' C5' H5' H5''C4' H4' O4' C1' H1' N1  C6  H6  C5  H5  C4  N4  H41 H42 N3  
C2  O2  C3' H3' C2' H2' O2' HO2'O3' P   OP1 OP2 O5' C5' H5' H5''C4' H4' O4' C1' 
H1' N1  C6  H6  C5  H5  C4  O4  N3  H3  C2  O2  C3' H3' C2' H2' O2' HO2'O3' P   
OP1 OP2 O5' C5' H5' H5''C4' H4' O4' C1' H1' N1  C6  H6  C5  H5  C4  N4  H41 H42 
N3  C2  O2  C3' H3' C2' H2' O2' HO2'O3' P   OP1 OP2 O5' C5' H5' H5''C4' H4' O4' 
C1' H1' N1  C6  H6  C5  H5  C4  N4  H41 H42 N3  C2  O2  C3' H3' C2' H2' O2' HO2'
O3' HO3'
%FLAG CHARGE                                                                    
%FORMAT(5E16.8)                                                                 
  8.05790106E+00 -1.15128491E+01 -1.25733870E-01  1.37396142E+00  1.37396142E+00
  2.96841267E+00  2.14294248E+00 -6.72585093E+00  6.52358340E-01  3.18161358E+00
  1.05142671E+00  1.34116128E+00  3.63899331E+00 -1.04322668E+01  3.62805993E+00
  8.96172714E+00 -1.03848888E+01 -9.20772819E+00  6.41424960E+00  1.35428134E+01
 -1.68191829E+01  7.71714405E+00  7.71714405E+00 -1.20923183E+01  3.30552522E+00
  1.29924999E+00  1.79489655E+00 -1.55618442E+00  1.30836114E+00  1.30836114E+00
 -9.53390736E+00  2.12453796E+01 -1.41423270E+01 -1.41423270E+01 -9.02732742E+00
 -1.25733870E-01  1.37396142E+00  1.37396142E+00  2.96841267E+00  2.14294248E+00
 -6.72585093E+00  6.52358340E-01  3.18161358E+00  1.05142671E+00  1.34116128E+00
  3.63899331E+00 -1.04322668E+01  3.62805993E+00  8.96172714E+00 -1.03848888E+01
 -9.20772819E+00  6.41424960E+00  1.35428134E+01 -1.68191829E+01  7.71714405E+00
  7.71714405E+00 -1.20923183E+01  3.30552522E+00  1.29924999E+00  1.79489655E+00
 -1.55618442E+00  1.30836114E+00  1.30836114E+00 -9.53390736E+00  2.12453796E+01
 -1.41423270E+01 -1.41423270E+01 -9.02732742E+00 -1.25733870E-01  1.37396142E+00
  1.37396142E+00  2.96841267E+00  2.14294248E+00 -6.72585093E+00  7.85381130E-01
  3.34925874E+00 -4.88357640E-01  2.92832361E+00  3.42032571E+00 -1.12522703E+01
  1.32111675E+00  1.25679203E+01 -1.66242043E+01  7.59323241E+00  7.59323241E+00
 -1.38926815E+01  1.04158667E+01  1.08969354E+00 -1.35154799E+01  6.92447400E+00
  1.29924999E+00  1.79489655E+00 -1.55618442E+00  1.30836114E+00  1.30836114E+00
 -9.53390736E+00  2.12453796E+01 -1.41423270E+01 -1.41423270E+01 -9.02732742E+00
 -1.25733870E-01  1.37396142E+00  1.37396142E+00  2.96841267E+00  2.14294248E+00
 -6.72585093E+00  6.52358340E-01  3.18161358E+00  1.05142671E+00  1.34116128E+00
  3.63899331E+00 -1.04322668E+01  3.62805993E+00  8.96172714E+00 -1.03848888E+01
 -9.20772819E+00  6.41424960E+00  1.35428134E+01 -1.68191829E+01  7.71714405E+00
  7.71714405E+00 -1.20923183E+01  3.30552522E+00  1.29924999E+00  1.79489655E+00
 -1.55618442E+00  1.30836114E+00  1.30836114E+00 -9.53390736E+00  2.12453796E+01
 -1.41423270E+01 -1.41423270E+01 -9.02732742E+00 -1.25733870E-01  1.37396142E+00
  1.37396142E+00  2.96841267E+00  2.14294248E+00 -6.72585093E+00  7.85381130E-01
  3.34925874E+00 -4.88357640E-01  2.92832361E+00  3.42032571E+00 -1.12522703E+01
  1.32111675E+00  1.25679203E+01 -1.66242043E+01  7.59323241E+00  7.59323241E+00
 -1.38926815E+01  1.04158667E+01  1.08969354E+00 -1.35154799E+01  6.92447400E+00
  1.29924999E+00  1.79489655E+00 -1.55618442E+00  1.30836114E+00  1.30836114E+00
 -9.53390736E+00  2.12453796E+01 -1.41423270E+01 -1.41423270E+01 -9.02732742E+00
 -1.25733870E-01  1.37396142E+00  1.37396142E+00  2.96841267E+00  2.14294248E+00
 -6.72585093E+00  6.52358340E-01  3.18161358E+00  1.05142671E+00  1.34116128E+00
  3.63899331E+00 -1.04322668E+01  3.62805993E+00  8.96172714E+00 -1.03848888E+01
 -9.20772819E+00  6.41424960E+00  1.35428134E+01 -1.68191829E+01  7.71714405E+00
  7.71714405E+00 -1.20923183E+01  3.30552522E+00  1.29924999E+00  1.79489655E+00
 -1.55618442E+00  1.30836114E+00  1.30836114E+00 -9.53390736E+00  2.12453796E+01
 -1.41423270E+01 -1.41423270E+01 -9.02732742E+00 -1.25733870E-01  1.37396142E+00
  1.37396142E+00  2.96841267E+00  2.14294248E+00 -6.72585093E+00  6.52358340E-01
  3.18161358E+00  1.05142671E+00  1.34116128E+00  3.63899331E+00 -1.04322668E+01
  3.62805993E+00  8.96172714E+00 -1.03848888E+01 -9.20772819E+00  6.41424960E+00
  1.35428134E+01 -1.68191829E+01  7.71714405E+00  7.71714405E+00 -1.20923183E+01
  3.30552522E+00  1.29924999E+00  1.79489655E+00 -1.55618442E+00  1.30836114E+00
  1.30836114E+00 -9.53390736E+00  2.12453796E+01 -1.41423270E+01 -1.41423270E+01
 -9.02732742E+00 -1.25733870E-01  1.37396142E+00  1.37396142E+00  2.96841267E+00
  2.14294248E+00 -6.72585093E+00  7.85381130E-01  3.34925874E+00 -4.88357640E-01
  2.92832361E+00  3.42032571E+00 -1.12522703E+01  1.32111675E+00  1.25679203E+01
 -1.66242043E+01  7.59323241E+00  7.59323241E+00 -1.38926815E+01  1.04158667E+01
  1.08969354E+00 -1.35154799E+01  6.92447400E+00  1.29924999E+00  1.79489655E+00
 -1.55618442E+00  1.30836114E+00  1.30836114E+00 -9.53390736E+00  2.12453796E+01
 -1.41423270E+01 -1.41423270E+01 -9.02732742E+00 -1.25733870E-01  1.37396142E+00
  1.37396142E+00  2.96841267E+00  2.14294248E+00 -6.72585093E+00  7.85381130E-01
  3.34925874E+00 -4.88357640E-01  2.92832361E+00  3.42032571E+00 -1.12522703E+01
  1.32111675E+00  1.25679203E+01 -1.66242043E+01  7.59323241E+00  7.59323241E+00
 -1.38926815E+01  1.04158667E+01  1.08969354E+00 -1.35154799E+01  6.92447400E+00
  1.29924999E+00  1.79489655E+00 -1.55618442E+00  1.30836114E+00  1.30836114E+00
 -9.53390736E+00  2.12453796E+01 -1.41423270E+01 -1.41423270E+01 -9.02732742E+00
 -1.25733870E-01  1.37396142E+00  1.37396142E+00  2.96841267E+00  2.14294248E+00
 -6.72585093E+00  6.52358340E-01  3.18161358E+00  1.05142671E+00  1.34116128E+00
  3.63899331E+00 -1.04322668E+01  3.62805993E+00  8.96172714E+00 -1.03848888E+01
 -9.20772819E+00  6.41424960E+00  1.35428134E+01 -1.68191829E+01  7.71714405E+00
  7.71714405E+00 -1.20923183E+01  3.30552522E+00  1.29924999E+00  1.79489655E+00
 -1.55618442E+00  1.30836114E+00  1.30836114E+00 -9.53390736E+00  2.12453796E+01
 -1.41423270E+01 -1.41423270E+01 -9.02732742E+00 -1.25733870E-01  1.37396142E+00
  1.37396142E+00  2.96841267E+00  2.14294248E+00 -6.72585093E+00  7.85381130E-01
  3.34925874E+00 -4.88357640E-01  2.92832361E+00  3.42032571E+00 -1.12522703E+01
  1.32111675E+00  1.25679203E+01 -1.66242043E+01  7.59323241E+00  7.59323241E+00
 -1.38926815E+01  1.04158667E+01  1.08969354E+00 -1.35154799E+01  6.92447400E+00
  1.29924999E+00  1.79489655E+00 -1.55618442E+00  1.30836114E+00  1.30836114E+00
 -9.53390736E+00  2.12453796E+01 -1.41423270E+01 -1.41423270E+01 -9.02732742E+00
 -1.25733870E-01  1.37396142E+00  1.37396142E+00  2.96841267E+00  2.14294248E+00
 -6.72585093E+00  6.52358340E-01  3.18161358E+00  1.05142671E+00  1.34116128E+00
  3.63899331E+00 -1.04322668E+01  3.62805993E+00  8.96172714E+00 -1.03848888E+01
 -9.20772819E+00  6.41424960E+00  1.35428134E+01 -1.68191829E+01  7.71714405E+00
  7.71714405E+00 -1.20923183E+01  3.30552522E+00  1.29924999E+00  1.79489655E+00
 -1.55618442E+00  1.30836114E+00  1.30836114E+00 -9.53390736E+00  2.12453796E+01
 -1.41423270E+01 -1.41423270E+01 -9.02732742E+00 -1.25733870E-01  1.37396142E+00
  1.37396142E+00  2.96841267E+00  2.14294248E+00 -6.72585093E+00  7.85381130E-01
  3.34925874E+00 -4.88357640E-01  2.92832361E+00  3.42032571E+00 -1.12522703E+01
  1.32111675E+00  1.25679203E+01 -1.66242043E+01  7.59323241E+00  7.59323241E+00
 -1.38926815E+01  1.04158667E+01  1.08969354E+00 -1.35154799E+01  6.92447400E+00
  1.29924999E+00  1.79489655E+00 -1.55618442E+00  1.30836114E+00  1.30836114E+00
 -9.53390736E+00  2.12453796E+01 -1.41423270E+01 -1.41423270E+01 -9.02732742E+00
 -1.25733870E-01  1.37396142E+00  1.37396142E+00  2.96841267E+00  2.14294248E+00
 -6.72585093E+00  7.85381130E-01  3.34925874E+00 -4.88357640E-01  2.92832361E+00
  3.42032571E+00 -1.12522703E+01  1.32111675E+00  1.25679203E+01 -1.66242043E+01
  7.59323241E+00  7.59323241E+00 -1.38926815E+01  1.04158667E+01  1.08969354E+00
 -1.35154799E+01  6.92447400E+00  1.29924999E+00  1.79489655E+00 -1.55618442E+00
  1.30836114E+00  1.30836114E+00 -9.53390736E+00  2.12453796E+01 -1.41423270E+01
 -1.41423270E+01 -9.02732742E+00 -1.25733870E-01  1.37396142E+00  1.37396142E+00
  2.96841267E+00  2.14294248E+00 -6.72585093E+00  7.85381130E-01  3.34925874E+00
 -4.88357640E-01  2.92832361E+00  3.42032571E+00 -1.12522703E+01  1.32111675E+00
  1.25679203E+01 -1.66242043E+01  7.59323241E+00  7.59323241E+00 -1.38926815E+01
  1.04158667E+01  1.08969354E+00 -1.35154799E+01  6.92447400E+00  1.29924999E+00
  1.79489655E+00 -1.55618442E+00  1.30836114E+00  1.30836114E+00 -1.19337843E+01
  8.01052308E+00  7.82647785E+00 -1.13397373E+01  1.01680434E+00  1.23729417E+00
  1.23729417E+00  1.94067495E+00  2.13929802E+00 -6.46527204E+00  1.22818302E+00
  3.32374752E+00  7.61692140E-01 -2.05183098E+00  3.98703924E+00 -6.62380605E+00
  3.30005853E+00  1.08459130E+01 -1.04978670E+01 -6.46709427E+00  5.74731342E+00
  8.54079201E+00 -9.98035371E+00  3.68454906E+00  1.12067145E+00  1.22089410E+00
  1.77120756E+00 -1.11866700E+01  7.62785478E+00 -9.55941858E+00  2.12508463E+01
 -1.41405048E+01 -1.41405048E+01 -9.09110547E+00  1.01680434E+00  1.23729417E+00
  1.23729417E+00  1.94067495E+00  2.13929802E+00 -6.46527204E+00  1.22818302E+00
  3.32374752E+00  7.61692140E-01 -2.05183098E+00  3.98703924E+00 -6.62380605E+00
  3.30005853E+00  1.08459130E+01 -1.04978670E+01 -6.46709427E+00  5.74731342E+00
  8.54079201E+00 -9.98035371E+00  3.68454906E+00  1.12067145E+00  1.22089410E+00
  1.77120756E+00 -1.11866700E+01  7.62785478E+00 -9.55941858E+00  2.12508463E+01
 -1.41405048E+01 -1.41405048E+01 -9.09110547E+00  1.01680434E+00  1.23729417E+00
  1.23729417E+00  1.94067495E+00  2.13929802E+00 -6.46527204E+00  1.22818302E+00
  3.32374752E+00  7.61692140E-01 -2.05183098E+00  3.98703924E+00 -6.62380605E+00
  3.30005853E+00  1.08459130E+01 -1.04978670E+01 -6.46709427E+00  5.74731342E+00
  8.54079201E+00 -9.98035371E+00  3.68454906E+00  1.12067145E+00  1.22089410E+00
  1.77120756E+00 -1.11866700E+01  7.62785478E+00 -9.55941858E+00  2.12508463E+01
 -1.41405048E+01 -1.41405048E+01 -9.09110547E+00  1.01680434E+00  1.23729417E+00
  1.23729417E+00  1.94067495E+00  2.13929802E+00 -6.46527204E+00  1.20267180E-01
  3.69730467E+00 -8.81959320E-01  9.65781900E-02  3.56792634E+00 -9.50292945E+00
  3.51325944E+00  1.49149526E+01 -1.73658519E+01  7.71532182E+00  7.71532182E+00
 -1.38197923E+01  1.37359697E+01 -1.13925820E+01  3.68454906E+00  1.12067145E+00
  1.22089410E+00  1.77120756E+00 -1.11866700E+01  7.62785478E+00 -9.55941858E+00
  2.12508463E+01 -1.41405048E+01 -1.41405048E+01 -9.09110547E+00  1.01680434E+00
  1.23729417E+00  1.23729417E+00  1.94067495E+00  2.13929802E+00 -6.46527204E+00
  1.22818302E+00  3.32374752E+00  7.61692140E-01 -2.05183098E+00  3.98703924E+00
 -6.62380605E+00  3.30005853E+00  1.08459130E+01 -1.04978670E+01 -6.46709427E+00
  5.74731342E+00  8.54079201E+00 -9.98035371E+00  3.68454906E+00  1.12067145E+00
  1.22089410E+00  1.77120756E+00 -1.11866700E+01  7.62785478E+00 -9.55941858E+00
  2.12508463E+01 -1.41405048E+01 -1.41405048E+01 -9.09110547E+00  1.01680434E+00
  1.23729417E+00  1.23729417E+00  1.94067495E+00  2.13929802E+00 -6.46527204E+00
  1.20267180E-01  3.69730467E+00 -8.81959320E-01  9.65781900E-02  3.56792634E+00
 -9.50292945E+00  3.51325944E+00  1.49149526E+01 -1.73658519E+01  7.71532182E+00
  7.71532182E+00 -1.38197923E+01  1.37359697E+01 -1.13925820E+01  3.68454906E+00
  1.12067145E+00  1.22089410E+00  1.77120756E+00 -1.11866700E+01  7.62785478E+00
 -9.55941858E+00  2.12508463E+01 -1.41405048E+01 -1.41405048E+01 -9.09110547E+00
  1.01680434E+00  1.23729417E+00  1.23729417E+00  1.94067495E+00  2.13929802E+00
 -6.46527204E+00  1.22818302E+00  3.32374752E+00  7.61692140E-01 -2.05183098E+00
  3.98703924E+00 -6.62380605E+00  3.30005853E+00  1.08459130E+01 -1.04978670E+01
 -6.46709427E+00  5.74731342E+00  8.54079201E+00 -9.98035371E+00  3.68454906E+00
  1.12067145E+00  1.22089410E+00  1.77120756E+00 -1.11866700E+01  7.62785478E+00
 -9.55941858E+00  2.12508463E+01 -1.41405048E+01 -1.41405048E+01 -9.09110547E+00
  1.01680434E+00  1.23729417E+00  1.23729417E+00  1.94067495E+00  2.13929802E+00
 -6.46527204E+00  1.22818302E+00  3.32374752E+00  7.61692140E-01 -2.05183098E+00
  3.98703924E+00 -6.62380605E+00  3.30005853E+00  1.08459130E+01 -1.04978670E+01
 -6.46709427E+00  5.74731342E+00  8.54079201E+00 -9.98035371E+00  3.68454906E+00
  1.12067145E+00  1.22089410E+00  1.77120756E+00 -1.11866700E+01  7.62785478E+00
 -9.55941858E+00  2.12508463E+01 -1.41405048E+01 -1.41405048E+01 -9.09110547E+00
  1.01680434E+00  1.23729417E+00  1.23729417E+00  1.94067495E+00  2.13929802E+00
 -6.46527204E+00  1.20267180E-01  3.69730467E+00 -8.81959320E-01  9.65781900E-02
  3.56792634E+00 -9.50292945E+00  3.51325944E+00  1.49149526E+01 -1.73658519E+01
  7.71532182E+00  7.71532182E+00 -1.38197923E+01  1.37359697E+01 -1.13925820E+01
  3.68454906E+00  1.12067145E+00  1.22089410E+00  1.77120756E+00 -1.11866700E+01
  7.62785478E+00 -9.55941858E+00  2.12508463E+01 -1.41405048E+01 -1.41405048E+01
 -9.09110547E+00  1.01680434E+00  1.23729417E+00  1.23729417E+00  1.94067495E+00
  2.13929802E+00 -6.46527204E+00  1.20267180E-01  3.69730467E+00 -8.81959320E-01
  9.65781900E-02  3.56792634E+00 -9.50292945E+00  3.51325944E+00  1.49149526E+01
 -1.73658519E+01  7.71532182E+00  7.71532182E+00 -1.38197923E+01  1.37359697E+01
 -1.13925820E+01  3.68454906E+00  1.12067145E+00  1.22089410E+00  1.77120756E+00
 -1.11866700E+01  7.62785478E+00 -9.55941858E+00  2.12508463E+01 -1.41405048E+01
 -1.41405048E+01 -9.09110547E+00  1.01680434E+00  1.23729417E+00  1.23729417E+00
  1.94067495E+00  2.13929802E+00 -6.46527204E+00  1.22818302E+00  3.32374752E+00
  7.61692140E-01 -2.05183098E+00  3.98703924E+00 -6.62380605E+00  3.30005853E+00
  1.08459130E+01 -1.04978670E+01 -6.46709427E+00  5.74731342E+00  8.54079201E+00
 -9.98035371E+00  3.68454906E+00  1.12067145E+00  1.22089410E+00  1.77120756E+00
 -1.11866700E+01  7.62785478E+00 -9.55941858E+00  2.12508463E+01 -1.41405048E+01
 -1.41405048E+01 -9.09110547E+00  1.01680434E+00  1.23729417E+00  1.23729417E+00
  1.94067495E+00  2.13929802E+00 -6.46527204E+00  1.20267180E-01  3.69730467E+00
 -8.81959320E-01  9.65781900E-02  3.56792634E+00 -9.50292945E+00  3.51325944E+00
  1.49149526E+01 -1.73658519E+01  7.71532182E+00  7.71532182E+00 -1.38197923E+01
  1.37359697E+01 -1.13925820E+01  3.68454906E+00  1.12067145E+00  1.22089410E+00
  1.77120756E+00 -1.11866700E+01  7.62785478E+00 -9.55941858E+00  2.12508463E+01
 -1.41405048E+01 -1.41405048E+01 -9.09110547E+00  1.01680434E+00  1.23729417E+00
  1.23729417E+00  1.94067495E+00  2.13929802E+00 -6.46527204E+00  1.22818302E+00
  3.32374752E+00  7.61692140E-01 -2.05183098E+00  3.98703924E+00 -6.62380605E+00
  3.30005853E+00  1.08459130E+01 -1.04978670E+01 -6.46709427E+00  5.74731342E+00
  8.54079201E+00 -9.98035371E+00  3.68454906E+00  1.12067145E+00  1.22089410E+00
  1.77120756E+00 -1.11866700E+01  7.62785478E+00 -9.55941858E+00  2.12508463E+01
 -1.41405048E+01 -1.41405048E+01 -9.09110547E+00  1.01680434E+00  1.23729417E+00
  1.23729417E+00  1.94067495E+00  2.13929802E+00 -6.46527204E+00  1.20267180E-01
  3.69730467E+00 -8.81959320E-01  9.65781900E-02  3.56792634E+00 -9.50292945E+00
  3.51325944E+00  1.49149526E+01 -1.73658519E+01  7.71532182E+00  7.71532182E+00
 -1.38197923E+01  1.37359697E+01 -1.13925820E+01  3.68454906E+00  1.12067145E+00
  1.22089410E+00  1.77120756E+00 -1.11866700E+01  7.62785478E+00 -9.55941858E+00
  2.12508463E+01 -1.41405048E+01 -1.41405048E+01 -9.09110547E+00  1.01680434E+00
  1.23729417E+00  1.23729417E+00  1.94067495E+00  2.13929802E+00 -6.46527204E+00
  1.20267180E-01  3.69730467E+00 -8.81959320E-01  9.65781900E-02  3.56792634E+00
 -9.50292945E+00  3.51325944E+00  1.49149526E+01 -1.73658519E+01  7.71532182E+00
  7.71532182E+00 -1.38197923E+01  1.37359697E+01 -1.13925820E+01  3.68454906E+00
  1.12067145E+00  1.22089410E+00  1.77120756E+00 -1.11866700E+01  7.62785478E+00
 -1.19192064E+01  7.97407848E+00
%FLAG ATOMIC_NUMBER                                                             
%FORMAT(10I8)                                                                   
       1       8       6       1       1       6       1       8       6       1
       7       6       1       7       6       6       8       7       1       6
       7       1       1       7       6       6       1       6       1       1
       8      15       8       8       8       6       1       1       6       1
       8       6       1       7       6       1       7       6       6       8
       7       1       6       7       1       1       7       6       6       1
       6       1       1       8      15       8       8       8       6       1
       1       6       1       8       6       1       7       6       1       7
       6       6       7       1       1       7       6       1       7       6
       6       1       6       1       1       8      15       8       8       8
       6       1       1       6       1       8       6       1       7       6
       1       7       6       6       8       7       1       6       7       1
       1       7       6       6       1       6       1       1       8      15
       8       8       8       6       1       1       6       1       8       6
       1       7       6       1       7       6       6       7       1       1
       7       6       1       7       6       6       1       6       1       1
       8      15       8       8       8       6       1       1       6       1
       8       6       1       7       6       1       7       6       6       8
       7       1       6       7       1       1       7       6       6       1
       6       1       1       8      15       8       8       8       6       1
       1       6       1       8       6       1       7       6       1       7
       6       6       8       7       1       6       7       1       1       7
       6       6       1       6       1       1       8      15       8       8
       8       6       1       1       6       1       8       6       1       7
       6       1       7       6       6       7       1       1       7       6
       1       7       6       6       1       6       1       1       8      15
       8       8       8       6       1       1       6       1       8       6
       1       7       6       1       7       6       6       7       1       1
       7       6       1       7       6       6       1       6       1       1
       8      15       8       8       8       6       1       1       6       1
       8       6       1       7       6       1       7       6       6       8
       7       1       6       7       1       1       7       6       6       1
       6       1       1       8      15       8       8       8       6       1
       1       6       1       8       6       1       7       6       1       7
       6       6       7       1       1       7       6       1       7       6
       6       1       6       1       1       8      15       8       8       8
       6       1       1       6       1       8       6       1       7       6
       1       7       6       6       8       7       1       6       7       1
       1       7       6       6       1       6       1       1       8      15
       8       8       8       6       1       1       6       1       8       6
       1       7       6       1       7       6       6       7       1       1
       7       6       1       7       6       6       1       6       1       1
       8      15       8       8       8       6       1       1       6       1
       8       6       1       7       6       1       7       6       6       7
       1       1       7       6       1       7       6       6       1       6
       1       1       8      15       8       8       8       6       1       1
       6       1       8       6       1       7       6       1       7       6
       6       7       1       1       7       6       1       7       6       6
       1       6       1       1       8       1       1       8       6       1
       1       6       1       8       6       1       7       6       1       6
       1       6       8       7       1       6       8       6       1       6
       1       8       1       8      15       8       8       8       6       1
       1       6       1       8       6       1       7       6       1       6
       1       6       8       7       1       6       8       6       1       6
       1       8       1       8      15       8       8       8       6       1
       1       6       1       8       6       1       7       6       1       6
       1       6       8       7       1       6       8       6       1       6
       1       8       1       8      15       8       8       8       6       1
       1       6       1       8       6       1       7       6       1       6
       1       6       7       1       1       7       6       8       6       1
       6       1       8       1       8      15       8       8       8       6
       1       1       6       1       8       6       1       7       6       1
       6       1       6       8       7       1       6       8       6       1
       6       1       8       1       8      15       8       8       8       6
       1       1       6       1       8       6       1       7       6       1
       6       1       6       7       1       1       7       6       8       6
       1       6       1       8       1       8      15       8       8       8
       6       1       1       6       1       8       6       1       7       6
       1       6       1       6       8       7       1       6       8       6
       1       6       1       8       1       8      15       8       8       8
       6       1       1       6       1       8       6       1       7       6
       1       6       1       6       8       7       1       6       8       6
       1       6       1       8       1       8      15       8       8       8
       6       1       1       6       1       8       6       1       7       6
       1       6       1       6       7       1       1       7       6       8
       6       1       6       1       8       1       8      15       8       8
       8       6       1       1       6       1       8       6       1       7
       6       1       6       1       6       7       1       1       7       6
       8       6       1       6       1       8       1       8      15       8
       8       8       6       1       1       6       1       8       6       1
       7       6       1       6       1       6       8       7       1       6
       8       6       1       6       1       8       1       8      15       8
       8       8       6       1       1       6       1       8       6       1
       7       6       1       6       1       6       7       1       1       7
       6       8       6       1       6       1       8       1       8      15
       8       8       8       6       1       1       6       1       8       6
       1       7       6       1       6       1       6       8       7       1
       6       8       6       1       6       1       8       1       8      15
       8       8       8       6       1       1       6       1       8       6
       1       7       6       1       6       1       6       7       1       1
       7       6       8       6       1       6       1       8       1       8
      15       8       8       8       6       1       1       6       1       8
       6       1       7       6       1       6       1       6       7       1
       1       7       6       8       6       1       6       1       8       1
       8       1
%FLAG MASS                                                                      
%FORMAT(5E16.8)                                                                 
  1.00800000E+00  1.60000000E+01  1.20100000E+01  1.00800000E+00  1.00800000E+00
  1.20100000E+01  1.00800000E+00  1.60000000E+01  1.20100000E+01  1.00800000E+00
  1.40100000E+01  1.20100000E+01  1.00800000E+00  1.40100000E+01  1.20100000E+01
  1.20100000E+01  1.60000000E+01  1.40100000E+01  1.00800000E+00  1.20100000E+01
  1.40100000E+01  1.00800000E+00  1.00800000E+00  1.40100000E+01  1.20100000E+01
  1.20100000E+01  1.00800000E+00  1.20100000E+01  1.00800000E+00  1.00800000E+00
  1.60000000E+01  3.09700000E+01  1.60000000E+01  1.60000000E+01  1.60000000E+01
  1.20100000E+01  1.00800000E+00  1.00800000E+00  1.20100000E+01  1.00800000E+00
  1.60000000E+01  1.20100000E+01  1.00800000E+00  1.40100000E+01  1.20100000E+01
  1.00800000E+00  1.40100000E+01  1.20100000E+01  1.20100000E+01  1.60000000E+01
  1.40100000E+01  1.00800000E+00  1.20100000E+01  1.40100000E+01  1.00800000E+00
  1.00800000E+00  1.40100000E+01  1.20100000E+01  1.20100000E+01  1.00800000E+00
  1.20100000E+01  1.00800000E+00  1.00800000E+00  1.60000000E+01  3.09700000E+01
  1.60000000E+01  1.60000000E+01  1.60000000E+01  1.20100000E+01  1.00800000E+00
  1.00800000E+00  1.20100000E+01  1.00800000E+00  1.60000000E+01  1.20100000E+01
  1.00800000E+00  1.40100000E+01  1.20100000E+01  1.00800000E+00  1.40100000E+01
  1.20100000E+01  1.20100000E+01  1.40100000E+01  1.00800000E+00  1.00800000E+00
  1.40100000E+01  1.20100000E+01  1.00800000E+00  1.40100000E+01  1.20100000E+01
  1.20100000E+01  1.00800000E+00  1.20100000E+01  1.00800000E+00  1.00800000E+00
  1.60000000E+01  3.09700000E+01  1.60000000E+01  1.60000000E+01  1.60000000E+01
  1.20100000E+01  1.00800000E+00  1.00800000E+00  1.20100000E+01  1.00800000E+00
  1.60000000E+01  1.20100000E+01  1.00800000E+00  1.40100000E+01  1.20100000E+01
  1.00800000E+00  1.40100000E+01  1.20100000E+01  1.20100000E+01  1.60000000E+01
  1.40100000E+01  1.00800000E+00  1.20100000E+01  1.40100000E+01  1.00800000E+00
  1.00800000E+00  1.40100000E+01  1.20100000E+01  1.20100000E+01  1.00800000E+00
  1.20100000E+01  1.00800000E+00  1.00800000E+00  1.60000000E+01  3.09700000E+01
  1.60000000E+01  1.60000000E+01  1.60000000E+01  1.20100000E+01  1.00800000E+00
  1.00800000E+00  1.20100000E+01  1.00800000E+00  1.60000000E+01  1.20100000E+01
  1.00800000E+00  1.40100000E+01  1.20100000E+01  1.00800000E+00  1.40100000E+01
  1.20100000E+01  1.20100000E+01  1.40100000E+01  1.00800000E+00  1.00800000E+00
  1.40100000E+01  1.20100000E+01  1.00800000E+00  1.40100000E+01  1.20100000E+01
  1.20100000E+01  1.00800000E+00  1.20100000E+01  1.00800000E+00  1.00800000E+00
  1.60000000E+01  3.09700000E+01  1.60000000E+01  1.60000000E+01  1.60000000E+01
  1.20100000E+01  1.00800000E+00  1.00800000E+00  1.20100000E+01  1.00800000E+00
  1.60000000E+01  1.20100000E+01  1.00800000E+00  1.40100000E+01  1.20100000E+01
  1.00800000E+00  1.40100000E+01  1.20100000E+01  1.20100000E+01  1.60000000E+01
  1.40100000E+01  1.00800000E+00  1.20100000E+01  1.40100000E+01  1.00800000E+00
  1.00800000E+00  1.40100000E+01  1.20100000E+01  1.20100000E+01  1.00800000E+00
  1.20100000E+01  1.00800000E+00  1.00800000E+00  1.60000000E+01  3.09700000E+01
  1.60000000E+01  1.60000000E+01  1.60000000E+01  1.20100000E+01  1.00800000E+00
  1.00800000E+00  1.20100000E+01  1.00800000E+00  1.60000000E+01  1.20100000E+01
  1.00800000E+00  1.40100000E+01  1.20100000E+01  1.00800000E+00  1.40100000E+01
  1.20100000E+01  1.20100000E+01  1.60000000E+01  1.40100000E+01  1.00800000E+00
  1.20100000E+01  1.40100000E+01  1.00800000E+00  1.00800000E+00  1.40100000E+01
  1.20100000E+01  1.20100000E+01  1.00800000E+00  1.20100000E+01  1.00800000E+00
  1.00800000E+00  1.60000000E+01  3.09700000E+01  1.60000000E+01  1.60000000E+01
  1.60000000E+01  1.20100000E+01  1.00800000E+00  1.00800000E+00  1.20100000E+01
  1.00800000E+00  1.60000000E+01  1.20100000E+01  1.00800000E+00  1.40100000E+01
  1.20100000E+01  1.00800000E+00  1.40100000E+01  1.20100000E+01  1.20100000E+01
  1.40100000E+01  1.00800000E+00  1.00800000E+00  1.40100000E+01  1.20100000E+01
  1.00800000E+00  1.40100000E+01  1.20100000E+01  1.20100000E+01  1.00800000E+00
  1.20100000E+01  1.00800000E+00  1.00800000E+00  1.60000000E+01  3.09700000E+01
  1.60000000E+01  1.60000000E+01  1.60000000E+01  1.20100000E+01  1.00800000E+00
  1.00800000E+00  1.20100000E+01  1.00800000E+00  1.60000000E+01  1.20100000E+01
  1.00800000E+00  1.40100000E+01  1.20100000E+01  1.00800000E+00  1.40100000E+01
  1.20100000E+01  1.20100000E+01  1.40100000E+01  1.00800000E+00  1.00800000E+00
  1.40100000E+01  1.20100000E+01  1.00800000E+00  1.40100000E+01  1.20100000E+01
  1.20100000E+01  1.00800000E+00  1.20100000E+01  1.00800000E+00  1.00800000E+00
  1.60000000E+01  3.09700000E+01  1.60000000E+01  1.60000000E+01  1.60000000E+01
  1.20100000E+01  1.00800000E+00  1.00800000E+00  1.20100000E+01  1.00800000E+00
  1.60000000E+01  1.20100000E+01  1.00800000E+00  1.40100000E+01  1.20100000E+01
  1.00800000E+00  1.40100000E+01  1.20100000E+01  1.20100000E+01  1.60000000E+01
  1.40100000E+01  1.00800000E+00  1.20100000E+01  1.40100000E+01  1.00800000E+00
  1.00800000E+00  1.40100000E+01  1.20100000E+01  1.20100000E+01  1.00800000E+00
  1.20100000E+01  1.00800000E+00  1.00800000E+00  1.60000000E+01  3.09700000E+01
  1.60000000E+01  1.60000000E+01  1.60000000E+01  1.20100000E+01  1.00800000E+00
  1.00800000E+00  1.20100000E+01  1.00800000E+00  1.60000000E+01  1.20100000E+01
  1.00800000E+00  1.40100000E+01  1.20100000E+01  1.00800000E+00  1.40100000E+01
  1.20100000E+01  1.20100000E+01  1.40100000E+01  1.00800000E+00  1.00800000E+00
  1.40100000E+01  1.20100000E+01  1.00800000E+00  1.40100000E+01  1.20100000E+01
  1.20100000E+01  1.00800000E+00  1.20100000E+01  1.00800000E+00  1.00800000E+00
  1.60000000E+01  3.09700000E+01  1.60000000E+01  1.60000000E+01  1.60000000E+01
  1.20100000E+01  1.00800000E+00  1.00800000E+00  1.20100000E+01  1.00800000E+00
  1.60000000E+01  1.20100000E+01  1.00800000E+00  1.40100000E+01  1.20100000E+01
  1.00800000E+00  1.40100000E+01  1.20100000E+01  1.20100000E+01  1.60000000E+01
  1.40100000E+01  1.00800000E+00  1.20100000E+01  1.40100000E+01  1.00800000E+00
  1.00800000E+00  1.40100000E+01  1.20100000E+01  1.20100000E+01  1.00800000E+00
  1.20100000E+01  1.00800000E+00  1.00800000E+00  1.60000000E+01  3.09700000E+01
  1.60000000E+01  1.60000000E+01  1.60000000E+01  1.20100000E+01  1.00800000E+00
  1.00800000E+00  1.20100000E+01  1.00800000E+00  1.60000000E+01  1.20100000E+01
  1.00800000E+00  1.40100000E+01  1.20100000E+01  1.00800000E+00  1.40100000E+01
  1.20100000E+01  1.20100000E+01  1.40100000E+01  1.00800000E+00  1.00800000E+00
  1.40100000E+01  1.20100000E+01  1.00800000E+00  1.40100000E+01  1.20100000E+01
  1.20100000E+01  1.00800000E+00  1.20100000E+01  1.00800000E+00  1.00800000E+00
  1.60000000E+01  3.09700000E+01  1.60000000E+01  1.60000000E+01  1.60000000E+01
  1.20100000E+01  1.00800000E+00  1.00800000E+00  1.20100000E+01  1.00800000E+00
  1.60000000E+01  1.20100000E+01  1.00800000E+00  1.40100000E+01  1.20100000E+01
  1.00800000E+00  1.40100000E+01  1.20100000E+01  1.20100000E+01  1.40100000E+01
  1.00800000E+00  1.00800000E+00  1.40100000E+01  1.20100000E+01  1.00800000E+00
  1.40100000E+01  1.20100000E+01  1.20100000E+01  1.00800000E+00  1.20100000E+01
  1.00800000E+00  1.00800000E+00  1.60000000E+01  3.09700000E+01  1.60000000E+01
  1.60000000E+01  1.60000000E+01  1.20100000E+01  1.00800000E+00  1.00800000E+00
  1.20100000E+01  1.00800000E+00  1.60000000E+01  1.20100000E+01  1.00800000E+00
  1.40100000E+01  1.20100000E+01  1.00800000E+00  1.40100000E+01  1.20100000E+01
  1.20100000E+01  1.40100000E+01  1.00800000E+00  1.00800000E+00  1.40100000E+01
  1.20100000E+01  1.00800000E+00  1.40100000E+01  1.20100000E+01  1.20100000E+01
  1.00800000E+00  1.20100000E+01  1.00800000E+00  1.00800000E+00  1.60000000E+01
  1.00800000E+00  1.00800000E+00  1.60000000E+01  1.20100000E+01  1.00800000E+00
  1.00800000E+00  1.20100000E+01  1.00800000E+00  1.60000000E+01  1.20100000E+01
  1.00800000E+00  1.40100000E+01  1.20100000E+01  1.00800000E+00  1.20100000E+01
  1.00800000E+00  1.20100000E+01  1.60000000E+01  1.40100000E+01  1.00800000E+00
  1.20100000E+01  1.60000000E+01  1.20100000E+01  1.00800000E+00  1.20100000E+01
  1.00800000E+00  1.60000000E+01  1.00800000E+00  1.60000000E+01  3.09700000E+01
  1.60000000E+01  1.60000000E+01  1.60000000E+01  1.20100000E+01  1.00800000E+00
  1.00800000E+00  1.20100000E+01  1.00800000E+00  1.60000000E+01  1.20100000E+01
  1.00800000E+00  1.40100000E+01  1.20100000E+01  1.00800000E+00  1.20100000E+01
  1.00800000E+00  1.20100000E+01  1.60000000E+01  1.40100000E+01  1.00800000E+00
  1.20100000E+01  1.60000000E+01  1.20100000E+01  1.00800000E+00  1.20100000E+01
  1.00800000E+00  1.60000000E+01  1.00800000E+00  1.60000000E+01  3.09700000E+01
  1.60000000E+01  1.60000000E+01  1.60000000E+01  1.20100000E+01  1.00800000E+00
  1.00800000E+00  1.20100000E+01  1.00800000E+00  1.60000000E+01  1.20100000E+01
  1.00800000E+00  1.40100000E+01  1.20100000E+01  1.00800000E+00  1.20100000E+01
  1.00800000E+00  1.20100000E+01  1.60000000E+01  1.40100000E+01  1.00800000E+00
  1.20100000E+01  1.60000000E+01  1.20100000E+01  1.00800000E+00  1.20100000E+01
  1.00800000E+00  1.60000000E+01  1.00800000E+00  1.60000000E+01  3.09700000E+01
  1.60000000E+01  1.60000000E+01  1.60000000E+01  1.20100000E+01  1.00800000E+00
  1.00800000E+00  1.20100000E+01  1.00800000E+00  1.60000000E+01  1.20100000E+01
  1.00800000E+00  1.40100000E+01  1.20100000E+01  1.00800000E+00  1.20100000E+01
  1.00800000E+00  1.20100000E+01  1.40100000E+01  1.00800000E+00  1.00800000E+00
  1.40100000E+01  1.20100000E+01  1.60000000E+01  1.20100000E+01  1.00800000E+00
  1.20100000E+01  1.00800000E+00  1.60000000E+01  1.00800000E+00  1.60000000E+01
  3.09700000E+01  1.60000000E+01  1.60000000E+01  1.60000000E+01  1.20100000E+01
  1.00800000E+00  1.00800000E+00  1.20100000E+01  1.00800000E+00  1.60000000E+01
  1.20100000E+01  1.00800000E+00  1.40100000E+01  1.20100000E+01  1.00800000E+00
  1.20100000E+01  1.00800000E+00  1.20100000E+01  1.60000000E+01  1.40100000E+01
  1.00800000E+00  1.20100000E+01  1.60000000E+01  1.20100000E+01  1.00800000E+00
  1.20100000E+01  1.00800000E+00  1.60000000E+01  1.00800000E+00  1.60000000E+01
  3.09700000E+01  1.60000000E+01  1.60000000E+01  1.60000000E+01  1.20100000E+01
  1.00800000E+00  1.00800000E+00  1.20100000E+01  1.00800000E+00  1.60000000E+01
  1.20100000E+01  1.00800000E+00  1.40100000E+01  1.20100000E+01  1.00800000E+00
  1.20100000E+01  1.00800000E+00  1.20100000E+01  1.40100000E+01  1.00800000E+00
  1.00800000E+00  1.40100000E+01  1.20100000E+01  1.60000000E+01  1.20100000E+01
  1.00800000E+00  1.20100000E+01  1.00800000E+00  1.60000000E+01  1.00800000E+00
  1.60000000E+01  3.09700000E+01  1.60000000E+01  1.60000000E+01  1.60000000E+01
  1.20100000E+01  1.00800000E+00  1.00800000E+00  1.20100000E+01  1.00800000E+00
  1.60000000E+01  1.20100000E+01  1.00800000E+00  1.40100000E+01  1.20100000E+01
  1.00800000E+00  1.20100000E+01  1.00800000E+00  1.20100000E+01  1.60000000E+01
  1.40100000E+01  1.00800000E+00  1.20100000E+01  1.60000000E+01  1.20100000E+01
  1.00800000E+00  1.20100000E+01  1.00800000E+00  1.60000000E+01  1.00800000E+00
  1.60000000E+01  3.09700000E+01  1.60000000E+01  1.60000000E+01  1.60000000E+01
  1.20100000E+01  1.00800000E+00  1.00800000E+00  1.20100000E+01  1.00800000E+00
  1.60000000E+01  1.20100000E+01  1.00800000E+00  1.40100000E+01  1.20100000E+01
  1.00800000E+00  1.20100000E+01  1.00800000E+00  1.20100000E+01  1.60000000E+01
  1.40100000E+01  1.00800000E+00  1.20100000E+01  1.60000000E+01  1.20100000E+01
  1.00800000E+00  1.20100000E+01  1.00800000E+00  1.60000000E+01  1.00800000E+00
  1.60000000E+01  3.09700000E+01  1.60000000E+01  1.60000000E+01  1.60000000E+01
  1.20100000E+01  1.00800000E+00  1.00800000E+00  1.20100000E+01  1.00800000E+00
  1.60000000E+01  1.20100000E+01  1.00800000E+00  1.40100000E+01  1.20100000E+01
  1.00800000E+00  1.20100000E+01  1.00800000E+00  1.20100000E+01  1.40100000E+01
  1.00800000E+00  1.00800000E+00  1.40100000E+01  1.20100000E+01  1.60000000E+01
  1.20100000E+01  1.00800000E+00  1.20100000E+01  1.00800000E+00  1.60000000E+01
  1.00800000E+00  1.60000000E+01  3.09700000E+01  1.60000000E+01  1.60000000E+01
  1.60000000E+01  1.20100000E+01  1.00800000E+00  1.00800000E+00  1.20100000E+01
  1.00800000E+00  1.60000000E+01  1.20100000E+01  1.00800000E+00  1.40100000E+01
  1.20100000E+01  1.00800000E+00  1.20100000E+01  1.00800000E+00  1.20100000E+01
  1.40100000E+01  1.00800000E+00  1.00800000E+00  1.40100000E+01  1.20100000E+01
  1.60000000E+01  1.20100000E+01  1.00800000E+00  1.20100000E+01  1.00800000E+00
  1.60000000E+01  1.00800000E+00  1.60000000E+01  3.09700000E+01  1.60000000E+01
  1.60000000E+01  1.60000000E+01  1.20100000E+01  1.00800000E+00  1.00800000E+00
  1.20100000E+01  1.00800000E+00  1.60000000E+01  1.20100000E+01  1.00800000E+00
  1.40100000E+01  1.20100000E+01  1.00800000E+00  1.20100000E+01  1.00800000E+00
  1.20100000E+01  1.60000000E+01  1.40100000E+01  1.00800000E+00  1.20100000E+01
  1.60000000E+01  1.20100000E+01  1.00800000E+00  1.20100000E+01  1.00800000E+00
  1.60000000E+01  1.00800000E+00  1.60000000E+01  3.09700000E+01  1.60000000E+01
  1.60000000E+01  1.60000000E+01  1.20100000E+01  1.00800000E+00  1.00800000E+00
  1.20100000E+01  1.00800000E+00  1.60000000E+01  1.20100000E+01  1.00800000E+00
  1.40100000E+01  1.20100000E+01  1.00800000E+00  1.20100000E+01  1.00800000E+00
  1.20100000E+01  1.40100000E+01  1.00800000E+00  1.00800000E+00  1.40100000E+01
  1.20100000E+01  1.60000000E+01  1.20100000E+01  1.00800000E+00  1.20100000E+01
  1.00800000E+00  1.60000000E+01  1.00800000E+00  1.60000000E+01  3.09700000E+01
  1.60000000E+01  1.60000000E+01  1.60000000E+01  1.20100000E+01  1.00800000E+00
  1.00800000E+00  1.20100000E+01  1.00800000E+00  1.60000000E+01  1.20100000E+01
  1.00800000E+00  1.40100000E+01  1.20100000E+01  1.00800000E+00  1.20100000E+01
  1.00800000E+00  1.20100000E+01  1.60000000E+01  1.40100000E+01  1.00800000E+00
  1.20100000E+01  1.60000000E+01  1.20100000E+01  1.00800000E+00  1.20100000E+01
  1.00800000E+00  1.60000000E+01  1.00800000E+00  1.60000000E+01  3.09700000E+01
  1.60000000E+01  1.60000000E+01  1.60000000E+01  1.20100000E+01  1.00800000E+00
  1.00800000E+00  1.20100000E+01  1.00800000E+00  1.60000000E+01  1.20100000E+01
  1.00800000E+00  1.40100000E+01  1.20100000E+01  1.00800000E+00  1.20100000E+01
  1.00800000E+00  1.20100000E+01  1.40100000E+01  1.00800000E+00  1.00800000E+00
  1.40100000E+01  1.20100000E+01  1.60000000E+01  1.20100000E+01  1.00800000E+00
  1.20100000E+01  1.00800000E+00  1.60000000E+01  1.00800000E+00  1.60000000E+01
  3.09700000E+01  1.60000000E+01  1.60000000E+01  1.60000000E+01  1.20100000E+01
  1.00800000E+00  1.00800000E+00  1.20100000E+01  1.00800000E+00  1.60000000E+01
  1.20100000E+01  1.00800000E+00  1.40100000E+01  1.20100000E+01  1.00800000E+00
  1.20100000E+01  1.00800000E+00  1.20100000E+01  1.40100000E+01  1.00800000E+00
  1.00800000E+00  1.40100000E+01  1.20100000E+01  1.60000000E+01  1.20100000E+01
  1.00800000E+00  1.20100000E+01  1.00800000E+00  1.60000000E+01  1.00800000E+00
  1.60000000E+01  1.00800000E+00
%FLAG ATOM_TYPE_INDEX                                                           
%FORMAT(10I8)                                                                   
       1       2       3       4       4       3       4       5       3       6
       7       8       9       7       8       8      10       7      11       8
       7      11      11       7       8       3       4       3      12      12
       5      13      10      10       5       3       4       4       3       4
       5       3       6       7       8       9       7       8       8      10
       7      11       8       7      11      11       7       8       3       4
       3      12      12       5      13      10      10       5       3       4
       4       3       4       5       3       6       7       8       9       7
       8       8       7      11      11       7       8       9       7       8
       3       4       3      12      12       5      13      10      10       5
       3       4       4       3       4       5       3       6       7       8
       9       7       8       8      10       7      11       8       7      11
      11       7       8       3       4       3      12      12       5      13
      10      10       5       3       4       4       3       4       5       3
       6       7       8       9       7       8       8       7      11      11
       7       8       9       7       8       3       4       3      12      12
       5      13      10      10       5       3       4       4       3       4
       5       3       6       7       8       9       7       8       8      10
       7      11       8       7      11      11       7       8       3       4
       3      12      12       5      13      10      10       5       3       4
       4       3       4       5       3       6       7       8       9       7
       8       8      10       7      11       8       7      11      11       7
       8       3       4       3      12      12       5      13      10      10
       5       3       4       4       3       4       5       3       6       7
       8       9       7       8       8       7      11      11       7       8
       9       7       8       3       4       3      12      12       5      13
      10      10       5       3       4       4       3       4       5       3
       6       7       8       9       7       8       8       7      11      11
       7       8       9       7       8       3       4       3      12      12
       5      13      10      10       5       3       4       4       3       4
       5       3       6       7       8       9       7       8       8      10
       7      11       8       7      11      11       7       8       3       4
       3      12      12       5      13      10      10       5       3       4
       4       3       4       5       3       6       7       8       9       7
       8       8       7      11      11       7       8       9       7       8
       3       4       3      12      12       5      13      10      10       5
       3       4       4       3       4       5       3       6       7       8
       9       7       8       8      10       7      11       8       7      11
      11       7       8       3       4       3      12      12       5      13
      10      10       5       3       4       4       3       4       5       3
       6       7       8       9       7       8       8       7      11      11
       7       8       9       7       8       3       4       3      12      12
       5      13      10      10       5       3       4       4       3       4
       5       3       6       7       8       9       7       8       8       7
      11      11       7       8       9       7       8       3       4       3
      12      12       5      13      10      10       5       3       4       4
       3       4       5       3       6       7       8       9       7       8
       8       7      11      11       7       8       9       7       8       3
       4       3      12      12       2       1       1       2       3       4
       4       3       4       5       3       6       7       8      14       8
      15       8      10       7      11       8      10       3       4       3
       4       2       1       5      13      10      10       5       3       4
       4       3       4       5       3       6       7       8      14       8
      15       8      10       7      11       8      10       3       4       3
       4       2       1       5      13      10      10       5       3       4
       4       3       4       5       3       6       7       8      14       8
      15       8      10       7      11       8      10       3       4       3
       4       2       1       5      13      10      10       5       3       4
       4       3       4       5       3       6       7       8      14       8
      15       8       7      11      11       7       8      10       3       4
       3       4       2       1       5      13      10      10       5       3
       4       4       3       4       5       3       6       7       8      14
       8      15       8      10       7      11       8      10       3       4
       3       4       2       1       5      13      10      10       5       3
       4       4       3       4       5       3       6       7       8      14
       8      15       8       7      11      11       7       8      10       3
       4       3       4       2       1       5      13      10      10       5
       3       4       4       3       4       5       3       6       7       8
      14       8      15       8      10       7      11       8      10       3
       4       3       4       2       1       5      13      10      10       5
       3       4       4       3       4       5       3       6       7       8
      14       8      15       8      10       7      11       8      10       3
       4       3       4       2       1       5      13      10      10       5
       3       4       4       3       4       5       3       6       7       8
      14       8      15       8       7      11      11       7       8      10
       3       4       3       4       2       1       5      13      10      10
       5       3       4       4       3       4       5       3       6       7
       8      14       8      15       8       7      11      11       7       8
      10       3       4       3       4       2       1       5      13      10
      10       5       3       4       4       3       4       5       3       6
       7       8      14       8      15       8      10       7      11       8
      10       3       4       3       4       2       1       5      13      10
      10       5       3       4       4       3       4       5       3       6
       7       8      14       8      15       8       7      11      11       7
       8      10       3       4       3       4       2       1       5      13
      10      10       5       3       4       4       3       4       5       3
       6       7       8      14       8      15       8      10       7      11
       8      10       3       4       3       4       2       1       5      13
      10      10       5       3       4       4       3       4       5       3
       6       7       8      14       8      15       8       7      11      11
       7       8      10       3       4       3       4       2       1       5
      13      10      10       5       3       4       4       3       4       5
       3       6       7       8      14       8      15       8       7      11
      11       7       8      10       3       4       3       4       2       1
       2       1
%FLAG NUMBER_EXCLUDED_ATOMS                                                     
%FORMAT(10I8)                                                                   
       5       7      10       5       4      12       6      11      14       7
      12       7       3       6       7       7       4       7       3       5
       4       2       1       1       1       9       5       4       2       1
       5       7       3       2       7      10       5       4      12       6
      11      14       7      12       7       3       6       7       7       4
       7       3       5       4       2       1       1       1       9       5
       4       2       1       5       7       3       2       7      10       5
       4      12       6      11      14       7      12       7       3       6
       8       8       5       2       1       4       3       2       1       1
       9       5       4       2       1       5       7       3       2       7
      10       5       4      12       6      11      14       7      12       7
       3       6       7       7       4       7       3       5       4       2
       1       1       1       9       5       4       2       1       5       7
       3       2       7      10       5       4      12       6      11      14
       7      12       7       3       6       8       8       5       2       1
       4       3       2       1       1       9       5       4       2       1
       5       7       3       2       7      10       5       4      12       6
      11      14       7      12       7       3       6       7       7       4
       7       3       5       4       2       1       1       1       9       5
       4       2       1       5       7       3       2       7      10       5
       4      12       6      11      14       7      12       7       3       6
       7       7       4       7       3       5       4       2       1       1
       1       9       5       4       2       1       5       7       3       2
       7      10       5       4      12       6      11      14       7      12
       7       3       6       8       8       5       2       1       4       3
       2       1       1       9       5       4       2       1       5       7
       3       2       7      10       5       4      12       6      11      14
       7      12       7       3       6       8       8       5       2       1
       4       3       2       1       1       9       5       4       2       1
       5       7       3       2       7      10       5       4      12       6
      11      14       7      12       7       3       6       7       7       4
       7       3       5       4       2       1       1       1       9       5
       4       2       1       5       7       3       2       7      10       5
       4      12       6      11      14       7      12       7       3       6
       8       8       5       2       1       4       3       2       1       1
       9       5       4       2       1       5       7       3       2       7
      10       5       4      12       6      11      14       7      12       7
       3       6       7       7       4       7       3       5       4       2
       1       1       1       9       5       4       2       1       5       7
       3       2       7      10       5       4      12       6      11      14
       7      12       7       3       6       8       8       5       2       1
       4       3       2       1       1       9       5       4       2       1
       5       7       3       2       7      10       5       4      12       6
      11      14       7      12       7       3       6       8       8       5
       2       1       4       3       2       1       1       9       5       4
       2       1       5       7       3       2       7      10       5       4
      12       6      11      14       7      12       7       3       6       8
       8       5       2       1       4       3       2       1       1       6
       5       4       2       1       1       1       5       7      10       5
       4      12       6      11      15       7      13       9       4       6
       3       5       3       3       2       2       1      10       5       5
       3       2       1       5       7       3       2       7      10       5
       4      12       6      11      15       7      13       9       4       6
       3       5       3       3       2       2       1      10       5       5
       3       2       1       5       7       3       2       7      10       5
       4      12       6      11      15       7      13       9       4       6
       3       5       3       3       2       2       1      10       5       5
       3       2       1       5       7       3       2       7      10       5
       4      12       6      11      15       7      12       9       4       7
       3       6       4       2       1       2       2       1      10       5
       5       3       2       1       5       7       3       2       7      10
       5       4      12       6      11      15       7      13       9       4
       6       3       5       3       3       2       2       1      10       5
       5       3       2       1       5       7       3       2       7      10
       5       4      12       6      11      15       7      12       9       4
       7       3       6       4       2       1       2       2       1      10
       5       5       3       2       1       5       7       3       2       7
      10       5       4      12       6      11      15       7      13       9
       4       6       3       5       3       3       2       2       1      10
       5       5       3       2       1       5       7       3       2       7
      10       5       4      12       6      11      15       7      13       9
       4       6       3       5       3       3       2       2       1      10
       5       5       3       2       1       5       7       3       2       7
      10       5       4      12       6      11      15       7      12       9
       4       7       3       6       4       2       1       2       2       1
      10       5       5       3       2       1       5       7       3       2
       7      10       5       4      12       6      11      15       7      12
       9       4       7       3       6       4       2       1       2       2
       1      10       5       5       3       2       1       5       7       3
       2       7      10       5       4      12       6      11      15       7
      13       9       4       6       3       5       3       3       2       2
       1      10       5       5       3       2       1       5       7       3
       2       7      10       5       4      12       6      11      15       7
      12       9       4       7       3       6       4       2       1       2
       2       1      10       5       5       3       2       1       5       7
       3       2       7      10       5       4      12       6      11      15
       7      13       9       4       6       3       5       3       3       2
       2       1      10       5       5       3       2       1       5       7
       3       2       7      10       5       4      12       6      11      15
       7      12       9       4       7       3       6       4       2       1
       2       2       1      10       5       5       3       2       1       5
       7       3       2       7      10       5       4      12       6      11
      15       7      12       9       4       7       3       6       4       2
       1       2       2       1       7       5       5       3       2       1
       1       1
%FLAG NONBONDED_PARM_INDEX                                                      
%FORMAT(10I8)                                                                   
       1       2       4       7      11      16      22      29      37      46
      56      67      79      92     106       2       3       5       8      12
      17      23      30      38      47      57      68      80      93     107
       4       5       6       9      13      18      24      31      39      48
      58      69      81      94     108       7       8       9      10      14
      19      25      32      40      49      59      70      82      95     109
      11      12      13      14      15      20      26      33      41      50
      60      71      83      96     110      16      17      18      19      20
      21      27      34      42      51      61      72      84      97     111
      22      23      24      25      26      27      28      35      43      52
      62      73      85      98     112      29      30      31      32      33
      34      35      36      44      53      63      74      86      99     113
      37      38      39      40      41      42      43      44      45      54
      64      75      87     100     114      46      47      48      49      50
      51      52      53      54      55      65      76      88     101     115
      56      57      58      59      60      61      62      63      64      65
      66      77      89     102     116      67      68      69      70      71
      72      73      74      75      76      77      78      90     103     117
      79      80      81      82      83      84      85      86      87      88
      89      90      91     104     118      92      93      94      95      96
      97      98      99     100     101     102     103     104     105     119
     106     107     108     109     110     111     112     113     114     115
     116     117     118     119     120
%FLAG RESIDUE_LABEL                                                             
%FORMAT(20a4)                                                                   
DG5 DG  DA  DG  DA  DG  DG  DA  DA  DG  DA  DG  DA  DA  DA3 U5  U   U   C   U   
C   U   U   C   C   U   C   U   C   C3  
%FLAG RESIDUE_POINTER                                                           
%FORMAT(10I8)                                                                   
       1      32      65      97     130     162     195     228     260     292
     325     357     390     422     454     487     515     545     575     606
     636     667     697     727     758     789     819     850     880     911
%FLAG BOND_FORCE_CONSTANT                                                       
%FORMAT(5E16.8)                                                                 
  5.25000000E+02  2.30000000E+02  3.20000000E+02  3.40000000E+02  3.10000000E+02
  3.40000000E+02  3.20000000E+02  3.40000000E+02  3.37000000E+02  4.40000000E+02
  3.67000000E+02  5.29000000E+02  4.14000000E+02  4.69000000E+02  4.81000000E+02
  4.34000000E+02  4.83000000E+02  5.02000000E+02  3.67000000E+02  4.36000000E+02
  5.20000000E+02  4.61000000E+02  3.10000000E+02  3.40000000E+02  3.10000000E+02
  3.40000000E+02  3.20000000E+02  5.53000000E+02  3.20000000E+02  4.40000000E+02
  3.67000000E+02  5.29000000E+02  4.47000000E+02  5.70000000E+02  4.18000000E+02
  4.34000000E+02  4.27000000E+02  3.20000000E+02  3.20000000E+02  3.40000000E+02
  3.10000000E+02  4.48000000E+02  3.67000000E+02  5.49000000E+02  3.67000000E+02
  4.10000000E+02  4.24000000E+02  3.20000000E+02  3.20000000E+02  4.48000000E+02
  3.67000000E+02  5.49000000E+02  3.67000000E+02  4.27000000E+02  4.57000000E+02
%FLAG BOND_EQUIL_VALUE                                                          
%FORMAT(5E16.8)                                                                 
  1.48000000E+00  1.61000000E+00  1.41000000E+00  1.09000000E+00  1.52600000E+00
  1.09000000E+00  1.41000000E+00  1.09000000E+00  1.47500000E+00  1.37100000E+00
  1.08000000E+00  1.30400000E+00  1.39100000E+00  1.40400000E+00  1.34000000E+00
  1.01000000E+00  1.33900000E+00  1.32400000E+00  1.08000000E+00  1.37400000E+00
  1.37000000E+00  1.35400000E+00  1.52600000E+00  1.09000000E+00  1.52600000E+00
  1.09000000E+00  1.41000000E+00  9.60000000E-01  1.41000000E+00  1.37100000E+00
  1.08000000E+00  1.30400000E+00  1.41900000E+00  1.22900000E+00  1.38800000E+00
  1.01000000E+00  1.38100000E+00  1.41000000E+00  1.41000000E+00  1.09000000E+00
  1.52600000E+00  1.36500000E+00  1.08000000E+00  1.35000000E+00  1.08000000E+00
  1.44400000E+00  1.38300000E+00  1.41000000E+00  1.41000000E+00  1.36500000E+00
  1.08000000E+00  1.35000000E+00  1.08000000E+00  1.43300000E+00  1.35800000E+00
%FLAG ANGLE_FORCE_CONSTANT                                                      
%FORMAT(5E16.8)                                                                 
  1.40000000E+02  1.00000000E+02  1.00000000E+02  5.00000000E+01  3.50000000E+01
  5.00000000E+01  5.00000000E+01  5.00000000E+01  5.00000000E+01  5.00000000E+01
  6.00000000E+01  5.00000000E+01  5.00000000E+01  5.00000000E+01  7.00000000E+01
  5.00000000E+01  7.00000000E+01  5.00000000E+01  7.00000000E+01  7.00000000E+01
  7.00000000E+01  7.00000000E+01  5.00000000E+01  3.50000000E+01  7.00000000E+01
  7.00000000E+01  7.00000000E+01  5.00000000E+01  7.00000000E+01  7.00000000E+01
  7.00000000E+01  7.00000000E+01  7.00000000E+01  7.00000000E+01  6.30000000E+01
  7.00000000E+01  4.00000000E+01  5.00000000E+01  5.00000000E+01  4.00000000E+01
  5.00000000E+01  5.00000000E+01  5.00000000E+01  5.00000000E+01  4.00000000E+01
  5.00000000E+01  5.00000000E+01  3.50000000E+01  5.00000000E+01  5.00000000E+01
  5.50000000E+01  1.00000000E+02  5.00000000E+01  5.00000000E+01  4.50000000E+01
  7.00000000E+01  5.00000000E+01  7.00000000E+01  5.00000000E+01  7.00000000E+01
  7.00000000E+01  8.00000000E+01  7.00000000E+01  8.00000000E+01  5.00000000E+01
  7.00000000E+01  5.00000000E+01  7.00000000E+01  7.00000000E+01  7.00000000E+01
  6.30000000E+01  7.00000000E+01  5.50000000E+01  5.00000000E+01  5.00000000E+01
  5.50000000E+01  5.00000000E+01  3.50000000E+01  5.00000000E+01  5.00000000E+01
  5.00000000E+01  5.00000000E+01  7.00000000E+01  5.00000000E+01  7.00000000E+01
  5.00000000E+01  5.00000000E+01  6.30000000E+01  5.00000000E+01  8.00000000E+01
  7.00000000E+01  7.00000000E+01  7.00000000E+01  7.00000000E+01  7.00000000E+01
  8.00000000E+01  4.00000000E+01  5.00000000E+01  4.00000000E+01  1.00000000E+02
  5.00000000E+01  5.00000000E+01  5.50000000E+01  1.00000000E+02  5.00000000E+01
  5.00000000E+01  7.00000000E+01  5.00000000E+01  7.00000000E+01  5.00000000E+01
  5.00000000E+01  6.30000000E+01  5.00000000E+01  7.00000000E+01  7.00000000E+01
  7.00000000E+01  7.00000000E+01  7.00000000E+01  8.00000000E+01
%FLAG ANGLE_EQUIL_VALUE                                                         
%FORMAT(5E16.8)                                                                 
  2.09265067E+00  1.88897066E+00  2.10312265E+00  1.91113635E+00  1.91113635E+00
  1.91113635E+00  1.91113635E+00  1.91113635E+00  1.91113635E+00  1.91113635E+00
  1.91113635E+00  1.91113635E+00  1.91113635E+00  1.91113635E+00  2.24798504E+00
  2.14762857E+00  1.98793087E+00  2.14762857E+00  1.81165254E+00  1.85354046E+00
  2.31081692E+00  2.15548255E+00  2.09439600E+00  2.09439600E+00  2.04727209E+00
  2.08217869E+00  2.06996138E+00  2.01498349E+00  2.25322103E+00  2.20260646E+00
  2.22878641E+00  2.19562514E+00  1.83957782E+00  1.92684432E+00  2.04727209E+00
  1.93731630E+00  1.91113635E+00  1.91113635E+00  1.91113635E+00  1.91113635E+00
  1.91113635E+00  1.91113635E+00  1.91113635E+00  1.91113635E+00  1.91113635E+00
  1.91113635E+00  1.91113635E+00  1.91113635E+00  1.91113635E+00  1.91113635E+00
  1.89368305E+00  2.10312265E+00  1.91113635E+00  1.91113635E+00  1.79070858E+00
  2.24798504E+00  2.14762857E+00  1.98793087E+00  2.14762857E+00  1.81165254E+00
  2.26892900E+00  2.24798504E+00  1.94255229E+00  2.10486798E+00  2.03854544E+00
  2.18515316E+00  2.05948940E+00  2.02458280E+00  2.15199189E+00  1.83957782E+00
  2.08043336E+00  1.95826026E+00  1.89368305E+00  1.91113635E+00  1.91113635E+00
  1.89368305E+00  1.91113635E+00  1.91113635E+00  1.91113635E+00  1.91113635E+00
  1.91113635E+00  1.91113635E+00  2.11533996E+00  2.07868803E+00  2.11533996E+00
  2.08916001E+00  2.08916001E+00  2.10661331E+00  2.08916001E+00  2.18689849E+00
  1.99142153E+00  2.01411082E+00  2.05250808E+00  2.12232128E+00  2.20609712E+00
  2.11010397E+00  1.91113635E+00  1.91113635E+00  1.91113635E+00  2.10312265E+00
  1.91113635E+00  1.91113635E+00  1.89368305E+00  2.10312265E+00  1.91113635E+00
  1.91113635E+00  2.11533996E+00  2.07868803E+00  2.11533996E+00  2.08916001E+00
  2.08916001E+00  2.04203610E+00  2.15199189E+00  2.09614133E+00  2.12057595E+00
  2.06996138E+00  2.12232128E+00  2.10312265E+00  2.13802925E+00
%FLAG DIHEDRAL_FORCE_CONSTANT                                                   
%FORMAT(5E16.8)                                                                 
  2.50000000E-01  3.83333333E-01  5.27950000E-01  9.12740000E-02  5.35535000E-01
  7.97600000E-02  2.50000000E-01  1.55555556E-01  1.00000000E-01  3.83000000E-01
  2.00000000E-01  2.50000000E-01  1.80000000E-01  6.50000000E-01  1.54499000E+00
  1.82864000E+00  5.73840000E-01  0.00000000E+00  1.70000000E+00  5.45000000E+00
  1.00000000E+01  1.65000000E+00  2.55000000E+00  3.50000000E+00  2.40000000E+00
  4.80000000E+00  4.15000000E+00  6.80000000E+00  4.46730000E-01  3.84150000E-01
  7.51420000E-01  1.39430000E-01  4.36200000E-02  3.83800000E-02  0.00000000E+00
  1.60000000E-01  1.17500000E+00  1.44000000E-01  1.66666667E-01  1.77488000E+00
  6.46810000E-01  1.52590000E-01  2.94070000E-01  9.28870000E-01  9.74250000E-01
  3.16418000E-01  6.30096000E-01  2.41150000E-01  1.62591000E-01  9.75200000E-02
  4.32520000E-02  1.18653000E+00  1.82910000E+00  6.65630000E-01  3.00000000E+00
  1.35000000E+00  1.50000000E+00  1.02514000E+00  1.74876000E+00  5.81500000E-01
  3.51480000E-01  1.85000000E+00  6.65000000E+00  2.17500000E+00  3.00000000E-01
  1.45000000E+00  1.17804000E+00  9.21020000E-02  9.62830000E-01  1.20000000E+00
  1.85181000E-01  1.25653100E+00  3.54858000E-01  1.22506000E+00  1.63459000E+00
  9.37470000E-01  3.10330000E-01  4.00000000E+00  0.00000000E+00  1.00000000E+00
  1.10000000E+00  1.05000000E+01
%FLAG DIHEDRAL_PERIODICITY                                                      
%FORMAT(5E16.8)                                                                 
  3.00000000E+00  3.00000000E+00  1.00000000E+00  2.00000000E+00  3.00000000E+00
  4.00000000E+00  1.00000000E+00  3.00000000E+00  2.00000000E+00  3.00000000E+00
  1.00000000E+00  2.00000000E+00  3.00000000E+00  2.00000000E+00  1.00000000E+00
  2.00000000E+00  3.00000000E+00  2.00000000E+00  2.00000000E+00  2.00000000E+00
  2.00000000E+00  2.00000000E+00  2.00000000E+00  2.00000000E+00  2.00000000E+00
  2.00000000E+00  2.00000000E+00  2.00000000E+00  1.00000000E+00  2.00000000E+00
  3.00000000E+00  4.00000000E+00  5.00000000E+00  6.00000000E+00  3.00000000E+00
  3.00000000E+00  2.00000000E+00  3.00000000E+00  3.00000000E+00  1.00000000E+00
  2.00000000E+00  3.00000000E+00  3.00000000E+00  1.00000000E+00  2.00000000E+00
  1.00000000E+00  2.00000000E+00  3.00000000E+00  4.00000000E+00  5.00000000E+00
  6.00000000E+00  1.00000000E+00  2.00000000E+00  3.00000000E+00  2.00000000E+00
  2.00000000E+00  2.00000000E+00  1.00000000E+00  2.00000000E+00  3.00000000E+00
  4.00000000E+00  2.00000000E+00  2.00000000E+00  2.00000000E+00  3.00000000E+00
  2.00000000E+00  1.00000000E+00  2.00000000E+00  3.00000000E+00  2.00000000E+00
  1.00000000E+00  2.00000000E+00  3.00000000E+00  1.00000000E+00  2.00000000E+00
  3.00000000E+00  4.00000000E+00  2.00000000E+00  2.00000000E+00  2.00000000E+00
  2.00000000E+00  2.00000000E+00
%FLAG DIHEDRAL_PHASE                                                            
%FORMAT(5E16.8)                                                                 
  0.00000000E+00  0.00000000E+00  4.11516700E-01  3.90339511E+00  3.16964180E+00
  3.75561907E+00  0.00000000E+00  0.00000000E+00  3.14159400E+00  0.00000000E+00
  3.14159400E+00  3.14159400E+00  0.00000000E+00  0.00000000E+00  7.08469590E-01
  6.22250811E+00  3.12423320E+00  0.00000000E+00  3.14159400E+00  3.14159400E+00
  3.14159400E+00  3.14159400E+00  3.14159400E+00  3.14159400E+00  3.14159400E+00
  3.14159400E+00  3.14159400E+00  3.14159400E+00  2.90541594E+00  4.29031785E+00
  6.00313235E+00  4.81763440E+00  5.32784672E+00  2.46419652E+00  0.00000000E+00
  0.00000000E+00  0.00000000E+00  0.00000000E+00  0.00000000E+00  3.59396957E+00
  2.44056824E+00  2.83610365E+00  6.25323814E+00  3.06008709E-02  6.12404881E+00
  1.78135361E+00  6.27782984E+00  5.23372107E+00  5.59919317E-01  5.29805393E+00
  3.40234630E-01  7.66639693E-01  6.12408721E+00  3.06161425E+00  3.14159400E+00
  3.14159400E+00  3.14159400E+00  2.61552187E+00  2.92601084E-01  3.13020398E+00
  2.79280725E-01  3.14159400E+00  3.14159400E+00  3.14159400E+00  0.00000000E+00
  3.14159400E+00  3.33317067E+00  5.15976777E+00  6.07541257E+00  0.00000000E+00
  5.54929070E-01  6.14285649E+00  6.23514744E+00  2.56544660E+00  2.87571043E-01
  3.24417403E+00  5.61280675E-01  3.14159400E+00  3.14159400E+00  3.14159400E+00
  3.14159400E+00  3.14159400E+00
%FLAG SCEE_SCALE_FACTOR                                                         
%FORMAT(5E16.8)                                                                 
  1.20000000E+00  1.20000000E+00  1.20000000E+00  1.20000000E+00  1.20000000E+00
  1.20000000E+00  1.20000000E+00  1.20000000E+00  1.20000000E+00  1.20000000E+00
  1.20000000E+00  1.20000000E+00  1.20000000E+00  1.20000000E+00  1.20000000E+00
  1.20000000E+00  1.20000000E+00  1.20000000E+00  1.20000000E+00  1.20000000E+00
  1.20000000E+00  1.20000000E+00  1.20000000E+00  1.20000000E+00  1.20000000E+00
  1.20000000E+00  1.20000000E+00  1.20000000E+00  1.20000000E+00  1.20000000E+00
  1.20000000E+00  1.20000000E+00  1.20000000E+00  1.20000000E+00  1.20000000E+00
  1.20000000E+00  1.20000000E+00  1.20000000E+00  1.20000000E+00  1.20000000E+00
  1.20000000E+00  1.20000000E+00  1.20000000E+00  1.20000000E+00  1.20000000E+00
  1.20000000E+00  1.20000000E+00  1.20000000E+00  1.20000000E+00  1.20000000E+00
  1.20000000E+00  1.20000000E+00  1.20000000E+00  1.20000000E+00  1.20000000E+00
  1.20000000E+00  1.20000000E+00  1.20000000E+00  1.20000000E+00  1.20000000E+00
  1.20000000E+00  1.20000000E+00  1.20000000E+00  1.20000000E+00  1.20000000E+00
  1.20000000E+00  1.20000000E+00  1.20000000E+00  1.20000000E+00  1.20000000E+00
  1.20000000E+00  1.20000000E+00  1.20000000E+00  1.20000000E+00  1.20000000E+00
  1.20000000E+00  1.20000000E+00  1.20000000E+00  0.00000000E+00  0.00000000E+00
  0.00000000E+00  0.00000000E+00
%FLAG SCNB_SCALE_FACTOR                                                         
%FORMAT(5E16.8)                                                                 
  2.00000000E+00  2.00000000E+00  2.00000000E+00  2.00000000E+00  2.00000000E+00
  2.00000000E+00  2.00000000E+00  2.00000000E+00  2.00000000E+00  2.00000000E+00
  2.00000000E+00  2.00000000E+00  2.00000000E+00  2.00000000E+00  2.00000000E+00
  2.00000000E+00  2.00000000E+00  2.00000000E+00  2.00000000E+00  2.00000000E+00
  2.00000000E+00  2.00000000E+00  2.00000000E+00  2.00000000E+00  2.00000000E+00
  2.00000000E+00  2.00000000E+00  2.00000000E+00  2.00000000E+00  2.00000000E+00
  2.00000000E+00  2.00000000E+00  2.00000000E+00  2.00000000E+00  2.00000000E+00
  2.00000000E+00  2.00000000E+00  2.00000000E+00  2.00000000E+00  2.00000000E+00
  2.00000000E+00  2.00000000E+00  2.00000000E+00  2.00000000E+00  2.00000000E+00
  2.00000000E+00  2.00000000E+00  2.00000000E+00  2.00000000E+00  2.00000000E+00
  2.00000000E+00  2.00000000E+00  2.00000000E+00  2.00000000E+00  2.00000000E+00
  2.00000000E+00  2.00000000E+00  2.00000000E+00  2.00000000E+00  2.00000000E+00
  2.00000000E+00  2.00000000E+00  2.00000000E+00  2.00000000E+00  2.00000000E+00
  2.00000000E+00  2.00000000E+00  2.00000000E+00  2.00000000E+00  2.00000000E+00
  2.00000000E+00  2.00000000E+00  2.00000000E+00  2.00000000E+00  2.00000000E+00
  2.00000000E+00  2.00000000E+00  2.00000000E+00  0.00000000E+00  0.00000000E+00
  0.00000000E+00  0.00000000E+00
%FLAG SOLTY                                                                     
%FORMAT(5E16.8)                                                                 
  0.00000000E+00  0.00000000E+00  0.00000000E+00  0.00000000E+00  0.00000000E+00
  0.00000000E+00  0.00000000E+00  0.00000000E+00  0.00000000E+00  0.00000000E+00
  0.00000000E+00  0.00000000E+00  0.00000000E+00  0.00000000E+00  0.00000000E+00
  0.00000000E+00  0.00000000E+00  0.00000000E+00  0.00000000E+00  0.00000000E+00
  0.00000000E+00  0.00000000E+00  0.00000000E+00  0.00000000E+00  0.00000000E+00
  0.00000000E+00  0.00000000E+00  0.00000000E+00  0.00000000E+00  0.00000000E+00
%FLAG LENNARD_JONES_ACOEF                                                       
%FORMAT(5E16.8)                                                                 
  0.00000000E+00  0.00000000E+00  5.81803229E+05  0.00000000E+00  7.91544157E+05
  1.04308023E+06  0.00000000E+00  4.66922514E+04  6.78771368E+04  3.25969625E+03
  0.00000000E+00  4.58874091E+05  6.28541240E+05  3.63097246E+04  3.61397723E+05
  0.00000000E+00  3.15360051E+04  4.68930885E+04  2.09814978E+03  2.44050579E+04
  1.32801250E+03  0.00000000E+00  7.44975864E+05  9.95480466E+05  6.20665997E+04
  5.89818288E+05  4.24594555E+04  9.44293233E+05  0.00000000E+00  7.01803794E+05
  9.24822270E+05  6.01816484E+04  5.57281136E+05  4.15766412E+04  8.82619071E+05
  8.19971662E+05  0.00000000E+00  4.09427581E+04  5.98885646E+04  2.82099197E+03
  3.17965283E+04  1.80748014E+03  5.46147253E+04  5.30987710E+04  2.43828624E+03
  0.00000000E+00  4.71003287E+05  6.47841731E+05  3.69471530E+04  3.70622491E+05
  2.47595516E+04  6.06829342E+05  5.74393458E+05  3.23283631E+04  3.79876399E+05
  0.00000000E+00  1.40467023E+03  2.56678134E+03  5.94667300E+01  1.03954408E+03
  3.20009193E+01  2.12601181E+03  2.27577561E+03  4.90239937E+01  1.02595236E+03
  1.39982777E-01  0.00000000E+00  6.82786631E+04  9.71708117E+04  4.98586848E+03
  5.33379252E+04  3.25969625E+03  8.96776989E+04  8.61541883E+04  4.33325458E+03
  5.44261042E+04  1.07193646E+02  7.51607703E+03  0.00000000E+00  1.98683736E+06
  2.54188684E+06  1.81087383E+05  1.58759528E+06  1.27716552E+05  2.45746558E+06
  2.25370349E+06  1.60682053E+05  1.64263766E+06  8.41065839E+03  2.54238516E+05
  6.02589390E+06  0.00000000E+00  4.96707306E+04  7.18621074E+04  3.50301067E+03
  3.86654993E+04  2.26273716E+03  6.58473870E+04  6.37148278E+04  3.03448006E+03
  3.93690817E+04  6.63368273E+01  5.34045360E+03  1.90880272E+05  3.76169105E+03
  0.00000000E+00  6.00750218E+04  8.59947003E+04  4.33325458E+03  4.68711055E+04
  2.82099197E+03  7.91627154E+04  7.62451550E+04  3.76169105E+03  4.77908183E+04
  8.90987508E+01  6.55825601E+03  2.26202022E+05  4.64559155E+03  5.71629601E+03
%FLAG LENNARD_JONES_BCOEF                                                       
%FORMAT(5E16.8)                                                                 
  0.00000000E+00  0.00000000E+00  6.99746810E+02  0.00000000E+00  6.93079947E+02
  6.75612247E+02  0.00000000E+00  1.03606917E+02  1.06076943E+02  1.43076527E+01
  0.00000000E+00  5.89183300E+02  5.85549272E+02  8.66220817E+01  4.95732238E+02
  0.00000000E+00  8.51470647E+01  8.81685417E+01  1.14788417E+01  7.10161395E+01
  9.13231543E+00  0.00000000E+00  7.50714425E+02  7.36907417E+02  1.13252061E+02
  6.33305958E+02  9.36708259E+01  8.01323529E+02  0.00000000E+00  6.14502845E+02
  5.99015525E+02  9.40505980E+01  5.19163331E+02  7.81725398E+01  6.53361429E+02
  5.31102864E+02  0.00000000E+00  9.59185913E+01  9.85097219E+01  1.31591746E+01
  8.01410250E+01  1.05333009E+01  1.05031585E+02  8.73413012E+01  1.20953369E+01
  0.00000000E+00  6.29300710E+02  6.26720080E+02  9.21192136E+01  5.29252520E+02
  7.54103785E+01  6.77220874E+02  5.55666448E+02  8.51921330E+01  5.64885984E+02
  0.00000000E+00  1.79702257E+01  2.06278363E+01  1.93248820E+00  1.46567808E+01
  1.41762397E+00  2.09604198E+01  1.82891803E+01  1.73473071E+00  1.53505284E+01
  9.37598976E-02  0.00000000E+00  1.25287818E+02  1.26919150E+02  1.76949863E+01
  1.04986921E+02  1.43076527E+01  1.36131731E+02  1.12529845E+02  1.63092814E+01
  1.11805549E+02  2.59456373E+00  2.17257828E+01  0.00000000E+00  1.27682121E+03
  1.22636552E+03  2.01468199E+02  1.08210555E+03  1.69194406E+02  1.34630496E+03
  1.08732781E+03  1.87626421E+02  1.16041466E+03  4.34187588E+01  2.38716853E+02
  2.19561270E+03  0.00000000E+00  1.05648788E+02  1.07908863E+02  1.46638650E+01
  8.83744760E+01  1.17854122E+01  1.15327881E+02  9.56748258E+01  1.34932874E+01
  9.40124296E+01  2.01792524E+00  1.81057616E+01  2.04498832E+02  1.50233639E+01
  0.00000000E+00  1.16187983E+02  1.18043746E+02  1.63092814E+01  9.73010751E+01
  1.31591746E+01  1.26451907E+02  1.04660679E+02  1.50233639E+01  1.03580945E+02
  2.33864085E+00  2.00642027E+01  2.22617115E+02  1.66953734E+01  1.85196588E+01
%FLAG BONDS_INC_HYDROGEN                                                        
%FORMAT(10I8)                                                                   
    1374    1371       4    1377    1371       4    1383    1380       6    1392
    1389       8    1401    1398      11    1416    1413      16    1419    1413
      16    1428    1425      19    1440    1437      24    1446    1443      26
    1449    1443      26    1455    1452      28    1278    1275       4    1281
    1275       4    1287    1284       6    1296    1293       8    1305    1302
      11    1320    1317      16    1323    1317      16    1332    1329      19
    1344    1341      24    1350    1347      26    1353    1347      26    1182
    1179       4    1185    1179       4    1191    1188       6    1200    1197
       8    1209    1206      11    1224    1221      16    1227    1221      16
    1236    1233      19    1248    1245      24    1254    1251      26    1257
    1251      26    1083    1080       4    1086    1080       4    1092    1089
       6    1101    1098       8    1110    1107      31    1128    1125      36
    1137    1134      16    1140    1134      16    1152    1149      24    1158
    1155      26    1161    1155      26     987     984       4     990     984
       4     996     993       6    1005    1002       8    1014    1011      11
    1029    1026      16    1032    1026      16    1041    1038      19    1053
    1050      24    1059    1056      26    1062    1056      26     888     885
       4     891     885       4     897     894       6     906     903       8
     915     912      31     933     930      36     942     939      16     945
     939      16     957     954      24     963     960      26     966     960
      26     792     789       4     795     789       4     801     798       6
     810     807       8     819     816      11     834     831      16     837
     831      16     846     843      19     858     855      24     864     861
      26     867     861      26     696     693       4     699     693       4
     705     702       6     714     711       8     723     720      11     738
     735      16     741     735      16     750     747      19     762     759
      24     768     765      26     771     765      26     597     594       4
     600     594       4     606     603       6     615     612       8     624
     621      31     642     639      36     651     648      16     654     648
      16     666     663      24     672     669      26     675     669      26
     498     495       4     501     495       4     507     504       6     516
     513       8     525     522      31     543     540      36     552     549
      16     555     549      16     567     564      24     573     570      26
     576     570      26     402     399       4     405     399       4     411
     408       6     420     417       8     429     426      11     444     441
      16     447     441      16     456     453      19     468     465      24
     474     471      26     477     471      26     303     300       4     306
     300       4     312     309       6     321     318       8     330     327
      31     348     345      36     357     354      16     360     354      16
     372     369      24     378     375      26     381     375      26     207
     204       4     210     204       4     216     213       6     225     222
       8     234     231      11     249     246      16     252     246      16
     261     258      19     273     270      24     279     276      26     282
     276      26     108     105       4     111     105       4     117     114
       6     126     123       8     135     132      31     153     150      36
     162     159      16     165     159      16     177     174      24     183
     180      26     186     180      26       3       0      28       9       6
       4      12       6       4      18      15       6      27      24       8
      36      33      31      54      51      36      63      60      16      66
      60      16      78      75      24      84      81      26      87      81
      26    1461    1458      28    1467    1464      40    1470    1464      40
    1476    1473       6    1485    1482       8    1494    1491      43    1500
    1497      45    1512    1509      36    1524    1521       6    1530    1527
       6    1536    1533      28    1557    1554      40    1560    1554      40
    1566    1563       6    1575    1572       8    1584    1581      43    1590
    1587      45    1602    1599      36    1614    1611       6    1620    1617
       6    1626    1623      28    1647    1644      40    1650    1644      40
    1656    1653       6    1665    1662       8    1674    1671      43    1680
    1677      45    1692    1689      36    1704    1701       6    1710    1707
       6    1716    1713      28    1737    1734      40    1740    1734      40
    1746    1743       6    1755    1752       8    1764    1761      51    1770
    1767      53    1779    1776      16    1782    1776      16    1797    1794
       6    1803    1800       6    1809    1806      28    1830    1827      40
    1833    1827      40    1839    1836       6    1848    1845       8    1857
    1854      43    1863    1860      45    1875    1872      36    1887    1884
       6    1893    1890       6    1899    1896      28    1920    1917      40
    1923    1917      40    1929    1926       6    1938    1935       8    1947
    1944      51    1953    1950      53    1962    1959      16    1965    1959
      16    1980    1977       6    1986    1983       6    1992    1989      28
    2013    2010      40    2016    2010      40    2022    2019       6    2031
    2028       8    2040    2037      43    2046    2043      45    2058    2055
      36    2070    2067       6    2076    2073       6    2082    2079      28
    2103    2100      40    2106    2100      40    2112    2109       6    2121
    2118       8    2130    2127      43    2136    2133      45    2148    2145
      36    2160    2157       6    2166    2163       6    2172    2169      28
    2193    2190      40    2196    2190      40    2202    2199       6    2211
    2208       8    2220    2217      51    2226    2223      53    2235    2232
      16    2238    2232      16    2253    2250       6    2259    2256       6
    2265    2262      28    2286    2283      40    2289    2283      40    2295
    2292       6    2304    2301       8    2313    2310      51    2319    2316
      53    2328    2325      16    2331    2325      16    2346    2343       6
    2352    2349       6    2358    2355      28    2379    2376      40    2382
    2376      40    2388    2385       6    2397    2394       8    2406    2403
      43    2412    2409      45    2424    2421      36    2436    2433       6
    2442    2439       6    2448    2445      28    2469    2466      40    2472
    2466      40    2478    2475       6    2487    2484       8    2496    2493
      51    2502    2499      53    2511    2508      16    2514    2508      16
    2529    2526       6    2535    2532       6    2541    2538      28    2562
    2559      40    2565    2559      40    2571    2568       6    2580    2577
       8    2589    2586      43    2595    2592      45    2607    2604      36
    2619    2616       6    2625    2622       6    2631    2628      28    2652
    2649      40    2655    2649      40    2661    2658       6    2670    2667
       8    2679    2676      51    2685    2682      53    2694    2691      16
    2697    2691      16    2712    2709       6    2718    2715       6    2724
    2721      28    2745    2742      40    2748    2742      40    2754    2751
       6    2763    2760       8    2772    2769      51    2778    2775      53
    2787    2784      16    2790    2784      16    2805    2802       6    2811
    2808       6    2817    2814      28    2823    2820      28
%FLAG BONDS_WITHOUT_HYDROGEN                                                    
%FORMAT(10I8)                                                                   
    1362    1359       1    1365    1359       1    1368    1359       2    1371
    1368       3    1380    1371       5    1386    1380       7    1389    1386
       7    1395    1389       9    1398    1395      10    1404    1398      12
    1407    1404      13    1410    1407      14    1413    1410      15    1422
    1410      17    1425    1422      18    1431    1425      18    1434    1395
      20    1434    1407      21    1434    1431      22    1437    1380      23
    1443    1389      25    1443    1437      23    1452    1437      27    1266
    1263       1    1269    1263       1    1272    1263       2    1275    1272
       3    1284    1275       5    1290    1284       7    1293    1290       7
    1299    1293       9    1302    1299      10    1308    1302      12    1311
    1308      13    1314    1311      14    1317    1314      15    1326    1314
      17    1329    1326      18    1335    1329      18    1338    1299      20
    1338    1311      21    1338    1335      22    1341    1284      23    1347
    1293      25    1347    1341      23    1356    1341      29    1356    1359
       2    1170    1167       1    1173    1167       1    1176    1167       2
    1179    1176       3    1188    1179       5    1194    1188       7    1197
    1194       7    1203    1197       9    1206    1203      10    1212    1206
      12    1215    1212      13    1218    1215      14    1221    1218      15
    1230    1218      17    1233    1230      18    1239    1233      18    1242
    1203      20    1242    1215      21    1242    1239      22    1245    1188
      23    1251    1197      25    1251    1245      23    1260    1245      29
    1260    1263       2    1071    1068       1    1074    1068       1    1077
    1068       2    1080    1077       3    1089    1080       5    1095    1089
       7    1098    1095       7    1104    1098       9    1107    1104      30
    1113    1107      32    1116    1113      13    1119    1116      33    1122
    1119      34    1125    1119      35    1131    1125      37    1134    1131
      15    1143    1131      17    1146    1104      20    1146    1116      21
    1146    1143      22    1149    1089      23    1155    1098      25    1155
    1149      23    1164    1149      29    1164    1167       2     975     972
       1     978     972       1     981     972       2     984     981       3
     993     984       5     999     993       7    1002     999       7    1008
    1002       9    1011    1008      10    1017    1011      12    1020    1017
      13    1023    1020      14    1026    1023      15    1035    1023      17
    1038    1035      18    1044    1038      18    1047    1008      20    1047
    1020      21    1047    1044      22    1050     993      23    1056    1002
      25    1056    1050      23    1065    1050      29    1065    1068       2
     876     873       1     879     873       1     882     873       2     885
     882       3     894     885       5     900     894       7     903     900
       7     909     903       9     912     909      30     918     912      32
     921     918      13     924     921      33     927     924      34     930
     924      35     936     930      37     939     936      15     948     936
      17     951     909      20     951     921      21     951     948      22
     954     894      23     960     903      25     960     954      23     969
     954      29     969     972       2     780     777       1     783     777
       1     786     777       2     789     786       3     798     789       5
     804     798       7     807     804       7     813     807       9     816
     813      10     822     816      12     825     822      13     828     825
      14     831     828      15     840     828      17     843     840      18
     849     843      18     852     813      20     852     825      21     852
     849      22     855     798      23     861     807      25     861     855
      23     870     855      29     870     873       2     684     681       1
     687     681       1     690     681       2     693     690       3     702
     693       5     708     702       7     711     708       7     717     711
       9     720     717      10     726     720      12     729     726      13
     732     729      14     735     732      15     744     732      17     747
     744      18     753     747      18     756     717      20     756     729
      21     756     753      22     759     702      23     765     711      25
     765     759      23     774     759      29     774     777       2     585
     582       1     588     582       1     591     582       2     594     591
       3     603     594       5     609     603       7     612     609       7
     618     612       9     621     618      30     627     621      32     630
     627      13     633     630      33     636     633      34     639     633
      35     645     639      37     648     645      15     657     645      17
     660     618      20     660     630      21     660     657      22     663
     603      23     669     612      25     669     663      23     678     663
      29     678     681       2     486     483       1     489     483       1
     492     483       2     495     492       3     504     495       5     510
     504       7     513     510       7     519     513       9     522     519
      30     528     522      32     531     528      13     534     531      33
     537     534      34     540     534      35     546     540      37     549
     546      15     558     546      17     561     519      20     561     531
      21     561     558      22     564     504      23     570     513      25
     570     564      23     579     564      29     579     582       2     390
     387       1     393     387       1     396     387       2     399     396
       3     408     399       5     414     408       7     417     414       7
     423     417       9     426     423      10     432     426      12     435
     432      13     438     435      14     441     438      15     450     438
      17     453     450      18     459     453      18     462     423      20
     462     435      21     462     459      22     465     408      23     471
     417      25     471     465      23     480     465      29     480     483
       2     291     288       1     294     288       1     297     288       2
     300     297       3     309     300       5     315     309       7     318
     315       7     324     318       9     327     324      30     333     327
      32     336     333      13     339     336      33     342     339      34
     345     339      35     351     345      37     354     351      15     363
     351      17     366     324      20     366     336      21     366     363
      22     369     309      23     375     318      25     375     369      23
     384     369      29     384     387       2     195     192       1     198
     192       1     201     192       2     204     201       3     213     204
       5     219     213       7     222     219       7     228     222       9
     231     228      10     237     231      12     240     237      13     243
     240      14     246     243      15     255     243      17     258     255
      18     264     258      18     267     228      20     267     240      21
     267     264      22     270     213      23     276     222      25     276
     270      23     285     270      29     285     288       2      96      93
       1      99      93       1     102      93       2     105     102       3
     114     105       5     120     114       7     123     120       7     129
     123       9     132     129      30     138     132      32     141     138
      13     144     141      33     147     144      34     150     144      35
     156     150      37     159     156      15     168     156      17     171
     129      20     171     141      21     171     168      22     174     114
      23     180     123      25     180     174      23     189     174      29
     189     192       2       6       3      38      15       6       5      21
      15       7      24      21       7      30      24       9      33      30
      30      39      33      32      42      39      13      45      42      33
      48      45      34      51      45      35      57      51      37      60
      57      15      69      57      17      72      30      20      72      42
      21      72      69      22      75      15      23      81      24      25
      81      75      23      90      75      29      90      93       2    1464
    1461      39    1473    1464      41    1479    1473       7    1482    1479
       7    1488    1482       9    1491    1488      42    1497    1491      44
    1503    1497      46    1506    1503      34    1509    1503      35    1515
    1488      47    1515    1509      35    1518    1515      34    1521    1473
      25    1527    1482      25    1527    1521      25    1533    1527      48
    1539    1521       7    1539    1542       2    1545    1542       1    1548
    1542       1    1551    1542       2    1554    1551      49    1563    1554
      41    1569    1563       7    1572    1569       7    1578    1572       9
    1581    1578      42    1587    1581      44    1593    1587      46    1596
    1593      34    1599    1593      35    1605    1578      47    1605    1599
      35    1608    1605      34    1611    1563      25    1617    1572      25
    1617    1611      25    1623    1617      48    1629    1611       7    1629
    1632       2    1635    1632       1    1638    1632       1    1641    1632
       2    1644    1641      49    1653    1644      41    1659    1653       7
    1662    1659       7    1668    1662       9    1671    1668      42    1677
    1671      44    1683    1677      46    1686    1683      34    1689    1683
      35    1695    1668      47    1695    1689      35    1698    1695      34
    1701    1653      25    1707    1662      25    1707    1701      25    1713
    1707      48    1719    1701       7    1719    1722       2    1725    1722
       1    1728    1722       1    1731    1722       2    1734    1731      49
    1743    1734      41    1749    1743       7    1752    1749       7    1758
    1752       9    1761    1758      50    1767    1761      52    1773    1767
      54    1776    1773      15    1785    1773      17    1788    1758      47
    1788    1785      55    1791    1788      34    1794    1743      25    1800
    1752      25    1800    1794      25    1806    1800      48    1812    1794
       7    1812    1815       2    1818    1815       1    1821    1815       1
    1824    1815       2    1827    1824      49    1836    1827      41    1842
    1836       7    1845    1842       7    1851    1845       9    1854    1851
      42    1860    1854      44    1866    1860      46    1869    1866      34
    1872    1866      35    1878    1851      47    1878    1872      35    1881
    1878      34    1884    1836      25    1890    1845      25    1890    1884
      25    1896    1890      48    1902    1884       7    1902    1905       2
    1908    1905       1    1911    1905       1    1914    1905       2    1917
    1914      49    1926    1917      41    1932    1926       7    1935    1932
       7    1941    1935       9    1944    1941      50    1950    1944      52
    1956    1950      54    1959    1956      15    1968    1956      17    1971
    1941      47    1971    1968      55    1974    1971      34    1977    1926
      25    1983    1935      25    1983    1977      25    1989    1983      48
    1995    1977       7    1995    1998       2    2001    1998       1    2004
    1998       1    2007    1998       2    2010    2007      49    2019    2010
      41    2025    2019       7    2028    2025       7    2034    2028       9
    2037    2034      42    2043    2037      44    2049    2043      46    2052
    2049      34    2055    2049      35    2061    2034      47    2061    2055
      35    2064    2061      34    2067    2019      25    2073    2028      25
    2073    2067      25    2079    2073      48    2085    2067       7    2085
    2088       2    2091    2088       1    2094    2088       1    2097    2088
       2    2100    2097      49    2109    2100      41    2115    2109       7
    2118    2115       7    2124    2118       9    2127    2124      42    2133
    2127      44    2139    2133      46    2142    2139      34    2145    2139
      35    2151    2124      47    2151    2145      35    2154    2151      34
    2157    2109      25    2163    2118      25    2163    2157      25    2169
    2163      48    2175    2157       7    2175    2178       2    2181    2178
       1    2184    2178       1    2187    2178       2    2190    2187      49
    2199    2190      41    2205    2199       7    2208    2205       7    2214
    2208       9    2217    2214      50    2223    2217      52    2229    2223
      54    2232    2229      15    2241    2229      17    2244    2214      47
    2244    2241      55    2247    2244      34    2250    2199      25    2256
    2208      25    2256    2250      25    2262    2256      48    2268    2250
       7    2268    2271       2    2274    2271       1    2277    2271       1
    2280    2271       2    2283    2280      49    2292    2283      41    2298
    2292       7    2301    2298       7    2307    2301       9    2310    2307
      50    2316    2310      52    2322    2316      54    2325    2322      15
    2334    2322      17    2337    2307      47    2337    2334      55    2340
    2337      34    2343    2292      25    2349    2301      25    2349    2343
      25    2355    2349      48    2361    2343       7    2361    2364       2
    2367    2364       1    2370    2364       1    2373    2364       2    2376
    2373      49    2385    2376      41    2391    2385       7    2394    2391
       7    2400    2394       9    2403    2400      42    2409    2403      44
    2415    2409      46    2418    2415      34    2421    2415      35    2427
    2400      47    2427    2421      35    2430    2427      34    2433    2385
      25    2439    2394      25    2439    2433      25    2445    2439      48
    2451    2433       7    2451    2454       2    2457    2454       1    2460
    2454       1    2463    2454       2    2466    2463      49    2475    2466
      41    2481    2475       7    2484    2481       7    2490    2484       9
    2493    2490      50    2499    2493      52    2505    2499      54    2508
    2505      15    2517    2505      17    2520    2490      47    2520    2517
      55    2523    2520      34    2526    2475      25    2532    2484      25
    2532    2526      25    2538    2532      48    2544    2526       7    2544
    2547       2    2550    2547       1    2553    2547       1    2556    2547
       2    2559    2556      49    2568    2559      41    2574    2568       7
    2577    2574       7    2583    2577       9    2586    2583      42    2592
    2586      44    2598    2592      46    2601    2598      34    2604    2598
      35    2610    2583      47    2610    2604      35    2613    2610      34
    2616    2568      25    2622    2577      25    2622    2616      25    2628
    2622      48    2634    2616       7    2634    2637       2    2640    2637
       1    2643    2637       1    2646    2637       2    2649    2646      49
    2658    2649      41    2664    2658       7    2667    2664       7    2673
    2667       9    2676    2673      50    2682    2676      52    2688    2682
      54    2691    2688      15    2700    2688      17    2703    2673      47
    2703    2700      55    2706    2703      34    2709    2658      25    2715
    2667      25    2715    2709      25    2721    2715      48    2727    2709
       7    2727    2730       2    2733    2730       1    2736    2730       1
    2739    2730       2    2742    2739      49    2751    2742      41    2757
    2751       7    2760    2757       7    2766    2760       9    2769    2766
      50    2775    2769      52    2781    2775      54    2784    2781      15
    2793    2781      17    2796    2766      47    2796    2793      55    2799
    2796      34    2802    2751      25    2808    2760      25    2808    2802
      25    2814    2808      48    2820    2802      48
%FLAG ANGLES_INC_HYDROGEN                                                       
%FORMAT(10I8)                                                                   
    1374    1371    1368       4    1377    1371    1368       4    1377    1371
    1374       5    1380    1371    1374       7    1380    1371    1377       7
    1383    1380    1371       8    1386    1380    1383      10    1392    1389
    1386      12    1395    1389    1392      14    1401    1398    1395      16
    1404    1398    1401      18    1416    1413    1410      23    1419    1413
    1410      23    1419    1413    1416      24    1428    1425    1422      28
    1431    1425    1428      28    1437    1380    1383      38    1440    1437
    1380      41    1443    1389    1392      43    1443    1437    1440      41
    1446    1443    1389      46    1446    1443    1437      47    1449    1443
    1389      46    1449    1443    1437      47    1449    1443    1446      48
    1452    1437    1440      50    1455    1452    1437      51    1278    1275
    1272       4    1281    1275    1272       4    1281    1275    1278       5
    1284    1275    1278       7    1284    1275    1281       7    1287    1284
    1275       8    1290    1284    1287      10    1296    1293    1290      12
    1299    1293    1296      14    1305    1302    1299      16    1308    1302
    1305      18    1320    1317    1314      23    1323    1317    1314      23
    1323    1317    1320      24    1332    1329    1326      28    1335    1329
    1332      28    1341    1284    1287      38    1344    1341    1284      41
    1347    1293    1296      43    1347    1341    1344      41    1350    1347
    1293      46    1350    1347    1341      47    1353    1347    1293      46
    1353    1347    1341      47    1353    1347    1350      48    1356    1341
    1344      54    1182    1179    1176       4    1185    1179    1176       4
    1185    1179    1182       5    1188    1179    1182       7    1188    1179
    1185       7    1191    1188    1179       8    1194    1188    1191      10
    1200    1197    1194      12    1203    1197    1200      14    1209    1206
    1203      16    1212    1206    1209      18    1224    1221    1218      23
    1227    1221    1218      23    1227    1221    1224      24    1236    1233
    1230      28    1239    1233    1236      28    1245    1188    1191      38
    1248    1245    1188      41    1251    1197    1200      43    1251    1245
    1248      41    1254    1251    1197      46    1254    1251    1245      47
    1257    1251    1197      46    1257    1251    1245      47    1257    1251
    1254      48    1260    1245    1248      54    1083    1080    1077       4
    1086    1080    1077       4    1086    1080    1083       5    1089    1080
    1083       7    1089    1080    1086       7    1092    1089    1080       8
    1095    1089    1092      10    1101    1098    1095      12    1104    1098
    1101      14    1110    1107    1104      57    1113    1107    1110      59
    1128    1125    1119      65    1131    1125    1128      67    1137    1134
    1131      23    1140    1134    1131      23    1140    1134    1137      24
    1149    1089    1092      38    1152    1149    1089      41    1155    1098
    1101      43    1155    1149    1152      41    1158    1155    1098      46
    1158    1155    1149      47    1161    1155    1098      46    1161    1155
    1149      47    1161    1155    1158      48    1164    1149    1152      54
     987     984     981       4     990     984     981       4     990     984
     987       5     993     984     987       7     993     984     990       7
     996     993     984       8     999     993     996      10    1005    1002
     999      12    1008    1002    1005      14    1014    1011    1008      16
    1017    1011    1014      18    1029    1026    1023      23    1032    1026
    1023      23    1032    1026    1029      24    1041    1038    1035      28
    1044    1038    1041      28    1050     993     996      38    1053    1050
     993      41    1056    1002    1005      43    1056    1050    1053      41
    1059    1056    1002      46    1059    1056    1050      47    1062    1056
    1002      46    1062    1056    1050      47    1062    1056    1059      48
    1065    1050    1053      54     888     885     882       4     891     885
     882       4     891     885     888       5     894     885     888       7
     894     885     891       7     897     894     885       8     900     894
     897      10     906     903     900      12     909     903     906      14
     915     912     909      57     918     912     915      59     933     930
     924      65     936     930     933      67     942     939     936      23
     945     939     936      23     945     939     942      24     954     894
     897      38     957     954     894      41     960     903     906      43
     960     954     957      41     963     960     903      46     963     960
     954      47     966     960     903      46     966     960     954      47
     966     960     963      48     969     954     957      54     792     789
     786       4     795     789     786       4     795     789     792       5
     798     789     792       7     798     789     795       7     801     798
     789       8     804     798     801      10     810     807     804      12
     813     807     810      14     819     816     813      16     822     816
     819      18     834     831     828      23     837     831     828      23
     837     831     834      24     846     843     840      28     849     843
     846      28     855     798     801      38     858     855     798      41
     861     807     810      43     861     855     858      41     864     861
     807      46     864     861     855      47     867     861     807      46
     867     861     855      47     867     861     864      48     870     855
     858      54     696     693     690       4     699     693     690       4
     699     693     696       5     702     693     696       7     702     693
     699       7     705     702     693       8     708     702     705      10
     714     711     708      12     717     711     714      14     723     720
     717      16     726     720     723      18     738     735     732      23
     741     735     732      23     741     735     738      24     750     747
     744      28     753     747     750      28     759     702     705      38
     762     759     702      41     765     711     714      43     765     759
     762      41     768     765     711      46     768     765     759      47
     771     765     711      46     771     765     759      47     771     765
     768      48     774     759     762      54     597     594     591       4
     600     594     591       4     600     594     597       5     603     594
     597       7     603     594     600       7     606     603     594       8
     609     603     606      10     615     612     609      12     618     612
     615      14     624     621     618      57     627     621     624      59
     642     639     633      65     645     639     642      67     651     648
     645      23     654     648     645      23     654     648     651      24
     663     603     606      38     666     663     603      41     669     612
     615      43     669     663     666      41     672     669     612      46
     672     669     663      47     675     669     612      46     675     669
     663      47     675     669     672      48     678     663     666      54
     498     495     492       4     501     495     492       4     501     495
     498       5     504     495     498       7     504     495     501       7
     507     504     495       8     510     504     507      10     516     513
     510      12     519     513     516      14     525     522     519      57
     528     522     525      59     543     540     534      65     546     540
     543      67     552     549     546      23     555     549     546      23
     555     549     552      24     564     504     507      38     567     564
     504      41     570     513     516      43     570     564     567      41
     573     570     513      46     573     570     564      47     576     570
     513      46     576     570     564      47     576     570     573      48
     579     564     567      54     402     399     396       4     405     399
     396       4     405     399     402       5     408     399     402       7
     408     399     405       7     411     408     399       8     414     408
     411      10     420     417     414      12     423     417     420      14
     429     426     423      16     432     426     429      18     444     441
     438      23     447     441     438      23     447     441     444      24
     456     453     450      28     459     453     456      28     465     408
     411      38     468     465     408      41     471     417     420      43
     471     465     468      41     474     471     417      46     474     471
     465      47     477     471     417      46     477     471     465      47
     477     471     474      48     480     465     468      54     303     300
     297       4     306     300     297       4     306     300     303       5
     309     300     303       7     309     300     306       7     312     309
     300       8     315     309     312      10     321     318     315      12
     324     318     321      14     330     327     324      57     333     327
     330      59     348     345     339      65     351     345     348      67
     357     354     351      23     360     354     351      23     360     354
     357      24     369     309     312      38     372     369     309      41
     375     318     321      43     375     369     372      41     378     375
     318      46     378     375     369      47     381     375     318      46
     381     375     369      47     381     375     378      48     384     369
     372      54     207     204     201       4     210     204     201       4
     210     204     207       5     213     204     207       7     213     204
     210       7     216     213     204       8     219     213     216      10
     225     222     219      12     228     222     225      14     234     231
     228      16     237     231     234      18     249     246     243      23
     252     246     243      23     252     246     249      24     261     258
     255      28     264     258     261      28     270     213     216      38
     273     270     213      41     276     222     225      43     276     270
     273      41     279     276     222      46     279     276     270      47
     282     276     222      46     282     276     270      47     282     276
     279      48     285     270     273      54     108     105     102       4
     111     105     102       4     111     105     108       5     114     105
     108       7     114     105     111       7     117     114     105       8
     120     114     117      10     126     123     120      12     129     123
     126      14     135     132     129      57     138     132     135      59
     153     150     144      65     156     150     153      67     162     159
     156      23     165     159     156      23     165     159     162      24
     174     114     117      38     177     174     114      41     180     123
     126      43     180     174     177      41     183     180     123      46
     183     180     174      47     186     180     123      46     186     180
     174      47     186     180     183      48     189     174     177      54
       6       3       0      73       9       6       3      74      12       6
       3      74      12       6       9       5      15       6       9       7
      15       6      12       7      18      15       6       8      21      15
      18      10      27      24      21      12      30      24      27      14
      36      33      30      57      39      33      36      59      54      51
      45      65      57      51      54      67      63      60      57      23
      66      60      57      23      66      60      63      24      75      15
      18      38      78      75      15      41      81      24      27      43
      81      75      78      41      84      81      24      46      84      81
      75      47      87      81      24      46      87      81      75      47
      87      81      84      48      90      75      78      54    1464    1461
    1458      76    1467    1464    1461      77    1470    1464    1461      77
    1470    1464    1467      78    1473    1464    1467      80    1473    1464
    1470      80    1476    1473    1464      81    1479    1473    1476      10
    1485    1482    1479      12    1488    1482    1485      14    1494    1491
    1488      84    1497    1491    1494      86    1500    1497    1491      87
    1503    1497    1500      89    1512    1509    1503      65    1515    1509
    1512      65    1521    1473    1476      98    1524    1521    1473      98
    1527    1482    1485      43    1527    1521    1524      98    1530    1527
    1482      98    1530    1527    1521      98    1533    1527    1530     102
    1536    1533    1527     103    1539    1521    1524      10    1557    1554
    1551     105    1560    1554    1551     105    1560    1554    1557      78
    1563    1554    1557      80    1563    1554    1560      80    1566    1563
    1554      81    1569    1563    1566      10    1575    1572    1569      12
    1578    1572    1575      14    1584    1581    1578      84    1587    1581
    1584      86    1590    1587    1581      87    1593    1587    1590      89
    1602    1599    1593      65    1605    1599    1602      65    1611    1563
    1566      98    1614    1611    1563      98    1617    1572    1575      43
    1617    1611    1614      98    1620    1617    1572      98    1620    1617
    1611      98    1623    1617    1620     102    1626    1623    1617     103
    1629    1611    1614      10    1647    1644    1641     105    1650    1644
    1641     105    1650    1644    1647      78    1653    1644    1647      80
    1653    1644    1650      80    1656    1653    1644      81    1659    1653
    1656      10    1665    1662    1659      12    1668    1662    1665      14
    1674    1671    1668      84    1677    1671    1674      86    1680    1677
    1671      87    1683    1677    1680      89    1692    1689    1683      65
    1695    1689    1692      65    1701    1653    1656      98    1704    1701
    1653      98    1707    1662    1665      43    1707    1701    1704      98
    1710    1707    1662      98    1710    1707    1701      98    1713    1707
    1710     102    1716    1713    1707     103    1719    1701    1704      10
    1737    1734    1731     105    1740    1734    1731     105    1740    1734
    1737      78    1743    1734    1737      80    1743    1734    1740      80
    1746    1743    1734      81    1749    1743    1746      10    1755    1752
    1749      12    1758    1752    1755      14    1764    1761    1758     108
    1767    1761    1764     110    1770    1767    1761     111    1773    1767
    1770     113    1779    1776    1773      23    1782    1776    1773      23
    1782    1776    1779      24    1794    1743    1746      98    1797    1794
    1743      98    1800    1752    1755      43    1800    1794    1797      98
    1803    1800    1752      98    1803    1800    1794      98    1806    1800
    1803     102    1809    1806    1800     103    1812    1794    1797      10
    1830    1827    1824     105    1833    1827    1824     105    1833    1827
    1830      78    1836    1827    1830      80    1836    1827    1833      80
    1839    1836    1827      81    1842    1836    1839      10    1848    1845
    1842      12    1851    1845    1848      14    1857    1854    1851      84
    1860    1854    1857      86    1863    1860    1854      87    1866    1860
    1863      89    1875    1872    1866      65    1878    1872    1875      65
    1884    1836    1839      98    1887    1884    1836      98    1890    1845
    1848      43    1890    1884    1887      98    1893    1890    1845      98
    1893    1890    1884      98    1896    1890    1893     102    1899    1896
    1890     103    1902    1884    1887      10    1920    1917    1914     105
    1923    1917    1914     105    1923    1917    1920      78    1926    1917
    1920      80    1926    1917    1923      80    1929    1926    1917      81
    1932    1926    1929      10    1938    1935    1932      12    1941    1935
    1938      14    1947    1944    1941     108    1950    1944    1947     110
    1953    1950    1944     111    1956    1950    1953     113    1962    1959
    1956      23    1965    1959    1956      23    1965    1959    1962      24
    1977    1926    1929      98    1980    1977    1926      98    1983    1935
    1938      43    1983    1977    1980      98    1986    1983    1935      98
    1986    1983    1977      98    1989    1983    1986     102    1992    1989
    1983     103    1995    1977    1980      10    2013    2010    2007     105
    2016    2010    2007     105    2016    2010    2013      78    2019    2010
    2013      80    2019    2010    2016      80    2022    2019    2010      81
    2025    2019    2022      10    2031    2028    2025      12    2034    2028
    2031      14    2040    2037    2034      84    2043    2037    2040      86
    2046    2043    2037      87    2049    2043    2046      89    2058    2055
    2049      65    2061    2055    2058      65    2067    2019    2022      98
    2070    2067    2019      98    2073    2028    2031      43    2073    2067
    2070      98    2076    2073    2028      98    2076    2073    2067      98
    2079    2073    2076     102    2082    2079    2073     103    2085    2067
    2070      10    2103    2100    2097     105    2106    2100    2097     105
    2106    2100    2103      78    2109    2100    2103      80    2109    2100
    2106      80    2112    2109    2100      81    2115    2109    2112      10
    2121    2118    2115      12    2124    2118    2121      14    2130    2127
    2124      84    2133    2127    2130      86    2136    2133    2127      87
    2139    2133    2136      89    2148    2145    2139      65    2151    2145
    2148      65    2157    2109    2112      98    2160    2157    2109      98
    2163    2118    2121      43    2163    2157    2160      98    2166    2163
    2118      98    2166    2163    2157      98    2169    2163    2166     102
    2172    2169    2163     103    2175    2157    2160      10    2193    2190
    2187     105    2196    2190    2187     105    2196    2190    2193      78
    2199    2190    2193      80    2199    2190    2196      80    2202    2199
    2190      81    2205    2199    2202      10    2211    2208    2205      12
    2214    2208    2211      14    2220    2217    2214     108    2223    2217
    2220     110    2226    2223    2217     111    2229    2223    2226     113
    2235    2232    2229      23    2238    2232    2229      23    2238    2232
    2235      24    2250    2199    2202      98    2253    2250    2199      98
    2256    2208    2211      43    2256    2250    2253      98    2259    2256
    2208      98    2259    2256    2250      98    2262    2256    2259     102
    2265    2262    2256     103    2268    2250    2253      10    2286    2283
    2280     105    2289    2283    2280     105    2289    2283    2286      78
    2292    2283    2286      80    2292    2283    2289      80    2295    2292
    2283      81    2298    2292    2295      10    2304    2301    2298      12
    2307    2301    2304      14    2313    2310    2307     108    2316    2310
    2313     110    2319    2316    2310     111    2322    2316    2319     113
    2328    2325    2322      23    2331    2325    2322      23    2331    2325
    2328      24    2343    2292    2295      98    2346    2343    2292      98
    2349    2301    2304      43    2349    2343    2346      98    2352    2349
    2301      98    2352    2349    2343      98    2355    2349    2352     102
    2358    2355    2349     103    2361    2343    2346      10    2379    2376
    2373     105    2382    2376    2373     105    2382    2376    2379      78
    2385    2376    2379      80    2385    2376    2382      80    2388    2385
    2376      81    2391    2385    2388      10    2397    2394    2391      12
    2400    2394    2397      14    2406    2403    2400      84    2409    2403
    2406      86    2412    2409    2403      87    2415    2409    2412      89
    2424    2421    2415      65    2427    2421    2424      65    2433    2385
    2388      98    2436    2433    2385      98    2439    2394    2397      43
    2439    2433    2436      98    2442    2439    2394      98    2442    2439
    2433      98    2445    2439    2442     102    2448    2445    2439     103
    2451    2433    2436      10    2469    2466    2463     105    2472    2466
    2463     105    2472    2466    2469      78    2475    2466    2469      80
    2475    2466    2472      80    2478    2475    2466      81    2481    2475
    2478      10    2487    2484    2481      12    2490    2484    2487      14
    2496    2493    2490     108    2499    2493    2496     110    2502    2499
    2493     111    2505    2499    2502     113    2511    2508    2505      23
    2514    2508    2505      23    2514    2508    2511      24    2526    2475
    2478      98    2529    2526    2475      98    2532    2484    2487      43
    2532    2526    2529      98    2535    2532    2484      98    2535    2532
    2526      98    2538    2532    2535     102    2541    2538    2532     103
    2544    2526    2529      10    2562    2559    2556     105    2565    2559
    2556     105    2565    2559    2562      78    2568    2559    2562      80
    2568    2559    2565      80    2571    2568    2559      81    2574    2568
    2571      10    2580    2577    2574      12    2583    2577    2580      14
    2589    2586    2583      84    2592    2586    2589      86    2595    2592
    2586      87    2598    2592    2595      89    2607    2604    2598      65
    2610    2604    2607      65    2616    2568    2571      98    2619    2616
    2568      98    2622    2577    2580      43    2622    2616    2619      98
    2625    2622    2577      98    2625    2622    2616      98    2628    2622
    2625     102    2631    2628    2622     103    2634    2616    2619      10
    2652    2649    2646     105    2655    2649    2646     105    2655    2649
    2652      78    2658    2649    2652      80    2658    2649    2655      80
    2661    2658    2649      81    2664    2658    2661      10    2670    2667
    2664      12    2673    2667    2670      14    2679    2676    2673     108
    2682    2676    2679     110    2685    2682    2676     111    2688    2682
    2685     113    2694    2691    2688      23    2697    2691    2688      23
    2697    2691    2694      24    2709    2658    2661      98    2712    2709
    2658      98    2715    2667    2670      43    2715    2709    2712      98
    2718    2715    2667      98    2718    2715    2709      98    2721    2715
    2718     102    2724    2721    2715     103    2727    2709    2712      10
    2745    2742    2739     105    2748    2742    2739     105    2748    2742
    2745      78    2751    2742    2745      80    2751    2742    2748      80
    2754    2751    2742      81    2757    2751    2754      10    2763    2760
    2757      12    2766    2760    2763      14    2772    2769    2766     108
    2775    2769    2772     110    2778    2775    2769     111    2781    2775
    2778     113    2787    2784    2781      23    2790    2784    2781      23
    2790    2784    2787      24    2802    2751    2754      98    2805    2802
    2751      98    2808    2760    2763      43    2808    2802    2805      98
    2811    2808    2760      98    2811    2808    2802      98    2814    2808
    2811     102    2817    2814    2808     103    2820    2802    2805     102
    2823    2820    2802     103
%FLAG ANGLES_WITHOUT_HYDROGEN                                                   
%FORMAT(10I8)                                                                   
    1365    1359    1362       1    1368    1359    1362       2    1368    1359
    1365       2    1371    1368    1359       3    1380    1371    1368       6
    1386    1380    1371       9    1389    1386    1380      11    1395    1389
    1386      13    1398    1395    1389      15    1404    1398    1395      17
    1407    1404    1398      19    1407    1434    1395      20    1410    1407
    1404      21    1413    1410    1407      22    1422    1410    1407      25
    1422    1410    1413      26    1425    1422    1410      27    1431    1425
    1422      29    1431    1434    1395      30    1431    1434    1407      31
    1434    1395    1389      32    1434    1395    1398      33    1434    1407
    1404      34    1434    1407    1410      35    1434    1431    1425      36
    1437    1380    1371      37    1437    1380    1386      39    1437    1443
    1389      40    1443    1389    1386      42    1443    1389    1395      44
    1443    1437    1380      45    1452    1437    1380      49    1452    1437
    1443      49    1269    1263    1266       1    1272    1263    1266       2
    1272    1263    1269       2    1275    1272    1263       3    1284    1275
    1272       6    1290    1284    1275       9    1293    1290    1284      11
    1299    1293    1290      13    1302    1299    1293      15    1308    1302
    1299      17    1311    1308    1302      19    1311    1338    1299      20
    1314    1311    1308      21    1317    1314    1311      22    1326    1314
    1311      25    1326    1314    1317      26    1329    1326    1314      27
    1335    1329    1326      29    1335    1338    1299      30    1335    1338
    1311      31    1338    1299    1293      32    1338    1299    1302      33
    1338    1311    1308      34    1338    1311    1314      35    1338    1335
    1329      36    1341    1284    1275      37    1341    1284    1290      39
    1341    1347    1293      40    1341    1356    1359      52    1347    1293
    1290      42    1347    1293    1299      44    1347    1341    1284      45
    1356    1341    1284      53    1356    1341    1347      53    1356    1359
    1362       2    1356    1359    1365       2    1356    1359    1368      55
    1173    1167    1170       1    1176    1167    1170       2    1176    1167
    1173       2    1179    1176    1167       3    1188    1179    1176       6
    1194    1188    1179       9    1197    1194    1188      11    1203    1197
    1194      13    1206    1203    1197      15    1212    1206    1203      17
    1215    1212    1206      19    1215    1242    1203      20    1218    1215
    1212      21    1221    1218    1215      22    1230    1218    1215      25
    1230    1218    1221      26    1233    1230    1218      27    1239    1233
    1230      29    1239    1242    1203      30    1239    1242    1215      31
    1242    1203    1197      32    1242    1203    1206      33    1242    1215
    1212      34    1242    1215    1218      35    1242    1239    1233      36
    1245    1188    1179      37    1245    1188    1194      39    1245    1251
    1197      40    1245    1260    1263      52    1251    1197    1194      42
    1251    1197    1203      44    1251    1245    1188      45    1260    1245
    1188      53    1260    1245    1251      53    1260    1263    1266       2
    1260    1263    1269       2    1260    1263    1272      55    1074    1068
    1071       1    1077    1068    1071       2    1077    1068    1074       2
    1080    1077    1068       3    1089    1080    1077       6    1095    1089
    1080       9    1098    1095    1089      11    1104    1098    1095      13
    1107    1104    1098      56    1113    1107    1104      58    1116    1113
    1107      60    1116    1146    1104      20    1119    1116    1113      61
    1122    1119    1116      62    1125    1119    1116      63    1125    1119
    1122      64    1131    1125    1119      66    1134    1131    1125      68
    1143    1131    1125      69    1143    1131    1134      26    1143    1146
    1104      30    1143    1146    1116      31    1146    1104    1098      32
    1146    1104    1107      70    1146    1116    1113      34    1146    1116
    1119      71    1146    1143    1131      72    1149    1089    1080      37
    1149    1089    1095      39    1149    1155    1098      40    1149    1164
    1167      52    1155    1098    1095      42    1155    1098    1104      44
    1155    1149    1089      45    1164    1149    1089      53    1164    1149
    1155      53    1164    1167    1170       2    1164    1167    1173       2
    1164    1167    1176      55     978     972     975       1     981     972
     975       2     981     972     978       2     984     981     972       3
     993     984     981       6     999     993     984       9    1002     999
     993      11    1008    1002     999      13    1011    1008    1002      15
    1017    1011    1008      17    1020    1017    1011      19    1020    1047
    1008      20    1023    1020    1017      21    1026    1023    1020      22
    1035    1023    1020      25    1035    1023    1026      26    1038    1035
    1023      27    1044    1038    1035      29    1044    1047    1008      30
    1044    1047    1020      31    1047    1008    1002      32    1047    1008
    1011      33    1047    1020    1017      34    1047    1020    1023      35
    1047    1044    1038      36    1050     993     984      37    1050     993
     999      39    1050    1056    1002      40    1050    1065    1068      52
    1056    1002     999      42    1056    1002    1008      44    1056    1050
     993      45    1065    1050     993      53    1065    1050    1056      53
    1065    1068    1071       2    1065    1068    1074       2    1065    1068
    1077      55     879     873     876       1     882     873     876       2
     882     873     879       2     885     882     873       3     894     885
     882       6     900     894     885       9     903     900     894      11
     909     903     900      13     912     909     903      56     918     912
     909      58     921     918     912      60     921     951     909      20
     924     921     918      61     927     924     921      62     930     924
     921      63     930     924     927      64     936     930     924      66
     939     936     930      68     948     936     930      69     948     936
     939      26     948     951     909      30     948     951     921      31
     951     909     903      32     951     909     912      70     951     921
     918      34     951     921     924      71     951     948     936      72
     954     894     885      37     954     894     900      39     954     960
     903      40     954     969     972      52     960     903     900      42
     960     903     909      44     960     954     894      45     969     954
     894      53     969     954     960      53     969     972     975       2
     969     972     978       2     969     972     981      55     783     777
     780       1     786     777     780       2     786     777     783       2
     789     786     777       3     798     789     786       6     804     798
     789       9     807     804     798      11     813     807     804      13
     816     813     807      15     822     816     813      17     825     822
     816      19     825     852     813      20     828     825     822      21
     831     828     825      22     840     828     825      25     840     828
     831      26     843     840     828      27     849     843     840      29
     849     852     813      30     849     852     825      31     852     813
     807      32     852     813     816      33     852     825     822      34
     852     825     828      35     852     849     843      36     855     798
     789      37     855     798     804      39     855     861     807      40
     855     870     873      52     861     807     804      42     861     807
     813      44     861     855     798      45     870     855     798      53
     870     855     861      53     870     873     876       2     870     873
     879       2     870     873     882      55     687     681     684       1
     690     681     684       2     690     681     687       2     693     690
     681       3     702     693     690       6     708     702     693       9
     711     708     702      11     717     711     708      13     720     717
     711      15     726     720     717      17     729     726     720      19
     729     756     717      20     732     729     726      21     735     732
     729      22     744     732     729      25     744     732     735      26
     747     744     732      27     753     747     744      29     753     756
     717      30     753     756     729      31     756     717     711      32
     756     717     720      33     756     729     726      34     756     729
     732      35     756     753     747      36     759     702     693      37
     759     702     708      39     759     765     711      40     759     774
     777      52     765     711     708      42     765     711     717      44
     765     759     702      45     774     759     702      53     774     759
     765      53     774     777     780       2     774     777     783       2
     774     777     786      55     588     582     585       1     591     582
     585       2     591     582     588       2     594     591     582       3
     603     594     591       6     609     603     594       9     612     609
     603      11     618     612     609      13     621     618     612      56
     627     621     618      58     630     627     621      60     630     660
     618      20     633     630     627      61     636     633     630      62
     639     633     630      63     639     633     636      64     645     639
     633      66     648     645     639      68     657     645     639      69
     657     645     648      26     657     660     618      30     657     660
     630      31     660     618     612      32     660     618     621      70
     660     630     627      34     660     630     633      71     660     657
     645      72     663     603     594      37     663     603     609      39
     663     669     612      40     663     678     681      52     669     612
     609      42     669     612     618      44     669     663     603      45
     678     663     603      53     678     663     669      53     678     681
     684       2     678     681     687       2     678     681     690      55
     489     483     486       1     492     483     486       2     492     483
     489       2     495     492     483       3     504     495     492       6
     510     504     495       9     513     510     504      11     519     513
     510      13     522     519     513      56     528     522     519      58
     531     528     522      60     531     561     519      20     534     531
     528      61     537     534     531      62     540     534     531      63
     540     534     537      64     546     540     534      66     549     546
     540      68     558     546     540      69     558     546     549      26
     558     561     519      30     558     561     531      31     561     519
     513      32     561     519     522      70     561     531     528      34
     561     531     534      71     561     558     546      72     564     504
     495      37     564     504     510      39     564     570     513      40
     564     579     582      52     570     513     510      42     570     513
     519      44     570     564     504      45     579     564     504      53
     579     564     570      53     579     582     585       2     579     582
     588       2     579     582     591      55     393     387     390       1
     396     387     390       2     396     387     393       2     399     396
     387       3     408     399     396       6     414     408     399       9
     417     414     408      11     423     417     414      13     426     423
     417      15     432     426     423      17     435     432     426      19
     435     462     423      20     438     435     432      21     441     438
     435      22     450     438     435      25     450     438     441      26
     453     450     438      27     459     453     450      29     459     462
     423      30     459     462     435      31     462     423     417      32
     462     423     426      33     462     435     432      34     462     435
     438      35     462     459     453      36     465     408     399      37
     465     408     414      39     465     471     417      40     465     480
     483      52     471     417     414      42     471     417     423      44
     471     465     408      45     480     465     408      53     480     465
     471      53     480     483     486       2     480     483     489       2
     480     483     492      55     294     288     291       1     297     288
     291       2     297     288     294       2     300     297     288       3
     309     300     297       6     315     309     300       9     318     315
     309      11     324     318     315      13     327     324     318      56
     333     327     324      58     336     333     327      60     336     366
     324      20     339     336     333      61     342     339     336      62
     345     339     336      63     345     339     342      64     351     345
     339      66     354     351     345      68     363     351     345      69
     363     351     354      26     363     366     324      30     363     366
     336      31     366     324     318      32     366     324     327      70
     366     336     333      34     366     336     339      71     366     363
     351      72     369     309     300      37     369     309     315      39
     369     375     318      40     369     384     387      52     375     318
     315      42     375     318     324      44     375     369     309      45
     384     369     309      53     384     369     375      53     384     387
     390       2     384     387     393       2     384     387     396      55
     198     192     195       1     201     192     195       2     201     192
     198       2     204     201     192       3     213     204     201       6
     219     213     204       9     222     219     213      11     228     222
     219      13     231     228     222      15     237     231     228      17
     240     237     231      19     240     267     228      20     243     240
     237      21     246     243     240      22     255     243     240      25
     255     243     246      26     258     255     243      27     264     258
     255      29     264     267     228      30     264     267     240      31
     267     228     222      32     267     228     231      33     267     240
     237      34     267     240     243      35     267     264     258      36
     270     213     204      37     270     213     219      39     270     276
     222      40     270     285     288      52     276     222     219      42
     276     222     228      44     276     270     213      45     285     270
     213      53     285     270     276      53     285     288     291       2
     285     288     294       2     285     288     297      55      99      93
      96       1     102      93      96       2     102      93      99       2
     105     102      93       3     114     105     102       6     120     114
     105       9     123     120     114      11     129     123     120      13
     132     129     123      56     138     132     129      58     141     138
     132      60     141     171     129      20     144     141     138      61
     147     144     141      62     150     144     141      63     150     144
     147      64     156     150     144      66     159     156     150      68
     168     156     150      69     168     156     159      26     168     171
     129      30     168     171     141      31     171     129     123      32
     171     129     132      70     171     141     138      34     171     141
     144      71     171     168     156      72     174     114     105      37
     174     114     120      39     174     180     123      40     174     189
     192      52     180     123     120      42     180     123     129      44
     180     174     114      45     189     174     114      53     189     174
     180      53     189     192     195       2     189     192     198       2
     189     192     201      55      15       6       3      75      21      15
       6       9      24      21      15      11      30      24      21      13
      33      30      24      56      39      33      30      58      42      39
      33      60      42      72      30      20      45      42      39      61
      48      45      42      62      51      45      42      63      51      45
      48      64      57      51      45      66      60      57      51      68
      69      57      51      69      69      57      60      26      69      72
      30      30      69      72      42      31      72      30      24      32
      72      30      33      70      72      42      39      34      72      42
      45      71      72      69      57      72      75      15       6      37
      75      15      21      39      75      81      24      40      75      90
      93      52      81      24      21      42      81      24      30      44
      81      75      15      45      90      75      15      53      90      75
      81      53      90      93      96       2      90      93      99       2
      90      93     102      55    1473    1464    1461      79    1479    1473
    1464      82    1482    1479    1473      11    1488    1482    1479      13
    1491    1488    1482      83    1497    1491    1488      85    1503    1497
    1491      88    1506    1503    1497      90    1509    1503    1497      91
    1509    1503    1506      64    1509    1515    1488      92    1515    1488
    1482      93    1515    1488    1491      94    1515    1509    1503      95
    1518    1515    1488      96    1518    1515    1509      64    1521    1473
    1464      97    1521    1473    1479      42    1521    1527    1482      99
    1521    1539    1542     100    1527    1482    1479      42    1527    1482
    1488      44    1527    1521    1473      99    1533    1527    1482     101
    1533    1527    1521     101    1539    1521    1473      42    1539    1521
    1527      42    1539    1542    1545       2    1539    1542    1548       2
    1539    1542    1551      55    1548    1542    1545       1    1551    1542
    1545       2    1551    1542    1548       2    1554    1551    1542     104
    1563    1554    1551     106    1569    1563    1554      82    1572    1569
    1563      11    1578    1572    1569      13    1581    1578    1572      83
    1587    1581    1578      85    1593    1587    1581      88    1596    1593
    1587      90    1599    1593    1587      91    1599    1593    1596      64
    1599    1605    1578      92    1605    1578    1572      93    1605    1578
    1581      94    1605    1599    1593      95    1608    1605    1578      96
    1608    1605    1599      64    1611    1563    1554      97    1611    1563
    1569      42    1611    1617    1572      99    1611    1629    1632     100
    1617    1572    1569      42    1617    1572    1578      44    1617    1611
    1563      99    1623    1617    1572     101    1623    1617    1611     101
    1629    1611    1563      42    1629    1611    1617      42    1629    1632
    1635       2    1629    1632    1638       2    1629    1632    1641      55
    1638    1632    1635       1    1641    1632    1635       2    1641    1632
    1638       2    1644    1641    1632     104    1653    1644    1641     106
    1659    1653    1644      82    1662    1659    1653      11    1668    1662
    1659      13    1671    1668    1662      83    1677    1671    1668      85
    1683    1677    1671      88    1686    1683    1677      90    1689    1683
    1677      91    1689    1683    1686      64    1689    1695    1668      92
    1695    1668    1662      93    1695    1668    1671      94    1695    1689
    1683      95    1698    1695    1668      96    1698    1695    1689      64
    1701    1653    1644      97    1701    1653    1659      42    1701    1707
    1662      99    1701    1719    1722     100    1707    1662    1659      42
    1707    1662    1668      44    1707    1701    1653      99    1713    1707
    1662     101    1713    1707    1701     101    1719    1701    1653      42
    1719    1701    1707      42    1719    1722    1725       2    1719    1722
    1728       2    1719    1722    1731      55    1728    1722    1725       1
    1731    1722    1725       2    1731    1722    1728       2    1734    1731
    1722     104    1743    1734    1731     106    1749    1743    1734      82
    1752    1749    1743      11    1758    1752    1749      13    1761    1758
    1752     107    1767    1761    1758     109    1773    1767    1761     112
    1776    1773    1767     114    1785    1773    1767     115    1785    1773
    1776      26    1785    1788    1758     116    1788    1758    1752      93
    1788    1758    1761     117    1788    1785    1773     118    1791    1788
    1758      96    1791    1788    1785     119    1794    1743    1734      97
    1794    1743    1749      42    1794    1800    1752      99    1794    1812
    1815     100    1800    1752    1749      42    1800    1752    1758      44
    1800    1794    1743      99    1806    1800    1752     101    1806    1800
    1794     101    1812    1794    1743      42    1812    1794    1800      42
    1812    1815    1818       2    1812    1815    1821       2    1812    1815
    1824      55    1821    1815    1818       1    1824    1815    1818       2
    1824    1815    1821       2    1827    1824    1815     104    1836    1827
    1824     106    1842    1836    1827      82    1845    1842    1836      11
    1851    1845    1842      13    1854    1851    1845      83    1860    1854
    1851      85    1866    1860    1854      88    1869    1866    1860      90
    1872    1866    1860      91    1872    1866    1869      64    1872    1878
    1851      92    1878    1851    1845      93    1878    1851    1854      94
    1878    1872    1866      95    1881    1878    1851      96    1881    1878
    1872      64    1884    1836    1827      97    1884    1836    1842      42
    1884    1890    1845      99    1884    1902    1905     100    1890    1845
    1842      42    1890    1845    1851      44    1890    1884    1836      99
    1896    1890    1845     101    1896    1890    1884     101    1902    1884
    1836      42    1902    1884    1890      42    1902    1905    1908       2
    1902    1905    1911       2    1902    1905    1914      55    1911    1905
    1908       1    1914    1905    1908       2    1914    1905    1911       2
    1917    1914    1905     104    1926    1917    1914     106    1932    1926
    1917      82    1935    1932    1926      11    1941    1935    1932      13
    1944    1941    1935     107    1950    1944    1941     109    1956    1950
    1944     112    1959    1956    1950     114    1968    1956    1950     115
    1968    1956    1959      26    1968    1971    1941     116    1971    1941
    1935      93    1971    1941    1944     117    1971    1968    1956     118
    1974    1971    1941      96    1974    1971    1968     119    1977    1926
    1917      97    1977    1926    1932      42    1977    1983    1935      99
    1977    1995    1998     100    1983    1935    1932      42    1983    1935
    1941      44    1983    1977    1926      99    1989    1983    1935     101
    1989    1983    1977     101    1995    1977    1926      42    1995    1977
    1983      42    1995    1998    2001       2    1995    1998    2004       2
    1995    1998    2007      55    2004    1998    2001       1    2007    1998
    2001       2    2007    1998    2004       2    2010    2007    1998     104
    2019    2010    2007     106    2025    2019    2010      82    2028    2025
    2019      11    2034    2028    2025      13    2037    2034    2028      83
    2043    2037    2034      85    2049    2043    2037      88    2052    2049
    2043      90    2055    2049    2043      91    2055    2049    2052      64
    2055    2061    2034      92    2061    2034    2028      93    2061    2034
    2037      94    2061    2055    2049      95    2064    2061    2034      96
    2064    2061    2055      64    2067    2019    2010      97    2067    2019
    2025      42    2067    2073    2028      99    2067    2085    2088     100
    2073    2028    2025      42    2073    2028    2034      44    2073    2067
    2019      99    2079    2073    2028     101    2079    2073    2067     101
    2085    2067    2019      42    2085    2067    2073      42    2085    2088
    2091       2    2085    2088    2094       2    2085    2088    2097      55
    2094    2088    2091       1    2097    2088    2091       2    2097    2088
    2094       2    2100    2097    2088     104    2109    2100    2097     106
    2115    2109    2100      82    2118    2115    2109      11    2124    2118
    2115      13    2127    2124    2118      83    2133    2127    2124      85
    2139    2133    2127      88    2142    2139    2133      90    2145    2139
    2133      91    2145    2139    2142      64    2145    2151    2124      92
    2151    2124    2118      93    2151    2124    2127      94    2151    2145
    2139      95    2154    2151    2124      96    2154    2151    2145      64
    2157    2109    2100      97    2157    2109    2115      42    2157    2163
    2118      99    2157    2175    2178     100    2163    2118    2115      42
    2163    2118    2124      44    2163    2157    2109      99    2169    2163
    2118     101    2169    2163    2157     101    2175    2157    2109      42
    2175    2157    2163      42    2175    2178    2181       2    2175    2178
    2184       2    2175    2178    2187      55    2184    2178    2181       1
    2187    2178    2181       2    2187    2178    2184       2    2190    2187
    2178     104    2199    2190    2187     106    2205    2199    2190      82
    2208    2205    2199      11    2214    2208    2205      13    2217    2214
    2208     107    2223    2217    2214     109    2229    2223    2217     112
    2232    2229    2223     114    2241    2229    2223     115    2241    2229
    2232      26    2241    2244    2214     116    2244    2214    2208      93
    2244    2214    2217     117    2244    2241    2229     118    2247    2244
    2214      96    2247    2244    2241     119    2250    2199    2190      97
    2250    2199    2205      42    2250    2256    2208      99    2250    2268
    2271     100    2256    2208    2205      42    2256    2208    2214      44
    2256    2250    2199      99    2262    2256    2208     101    2262    2256
    2250     101    2268    2250    2199      42    2268    2250    2256      42
    2268    2271    2274       2    2268    2271    2277       2    2268    2271
    2280      55    2277    2271    2274       1    2280    2271    2274       2
    2280    2271    2277       2    2283    2280    2271     104    2292    2283
    2280     106    2298    2292    2283      82    2301    2298    2292      11
    2307    2301    2298      13    2310    2307    2301     107    2316    2310
    2307     109    2322    2316    2310     112    2325    2322    2316     114
    2334    2322    2316     115    2334    2322    2325      26    2334    2337
    2307     116    2337    2307    2301      93    2337    2307    2310     117
    2337    2334    2322     118    2340    2337    2307      96    2340    2337
    2334     119    2343    2292    2283      97    2343    2292    2298      42
    2343    2349    2301      99    2343    2361    2364     100    2349    2301
    2298      42    2349    2301    2307      44    2349    2343    2292      99
    2355    2349    2301     101    2355    2349    2343     101    2361    2343
    2292      42    2361    2343    2349      42    2361    2364    2367       2
    2361    2364    2370       2    2361    2364    2373      55    2370    2364
    2367       1    2373    2364    2367       2    2373    2364    2370       2
    2376    2373    2364     104    2385    2376    2373     106    2391    2385
    2376      82    2394    2391    2385      11    2400    2394    2391      13
    2403    2400    2394      83    2409    2403    2400      85    2415    2409
    2403      88    2418    2415    2409      90    2421    2415    2409      91
    2421    2415    2418      64    2421    2427    2400      92    2427    2400
    2394      93    2427    2400    2403      94    2427    2421    2415      95
    2430    2427    2400      96    2430    2427    2421      64    2433    2385
    2376      97    2433    2385    2391      42    2433    2439    2394      99
    2433    2451    2454     100    2439    2394    2391      42    2439    2394
    2400      44    2439    2433    2385      99    2445    2439    2394     101
    2445    2439    2433     101    2451    2433    2385      42    2451    2433
    2439      42    2451    2454    2457       2    2451    2454    2460       2
    2451    2454    2463      55    2460    2454    2457       1    2463    2454
    2457       2    2463    2454    2460       2    2466    2463    2454     104
    2475    2466    2463     106    2481    2475    2466      82    2484    2481
    2475      11    2490    2484    2481      13    2493    2490    2484     107
    2499    2493    2490     109    2505    2499    2493     112    2508    2505
    2499     114    2517    2505    2499     115    2517    2505    2508      26
    2517    2520    2490     116    2520    2490    2484      93    2520    2490
    2493     117    2520    2517    2505     118    2523    2520    2490      96
    2523    2520    2517     119    2526    2475    2466      97    2526    2475
    2481      42    2526    2532    2484      99    2526    2544    2547     100
    2532    2484    2481      42    2532    2484    2490      44    2532    2526
    2475      99    2538    2532    2484     101    2538    2532    2526     101
    2544    2526    2475      42    2544    2526    2532      42    2544    2547
    2550       2    2544    2547    2553       2    2544    2547    2556      55
    2553    2547    2550       1    2556    2547    2550       2    2556    2547
    2553       2    2559    2556    2547     104    2568    2559    2556     106
    2574    2568    2559      82    2577    2574    2568      11    2583    2577
    2574      13    2586    2583    2577      83    2592    2586    2583      85
    2598    2592    2586      88    2601    2598    2592      90    2604    2598
    2592      91    2604    2598    2601      64    2604    2610    2583      92
    2610    2583    2577      93    2610    2583    2586      94    2610    2604
    2598      95    2613    2610    2583      96    2613    2610    2604      64
    2616    2568    2559      97    2616    2568    2574      42    2616    2622
    2577      99    2616    2634    2637     100    2622    2577    2574      42
    2622    2577    2583      44    2622    2616    2568      99    2628    2622
    2577     101    2628    2622    2616     101    2634    2616    2568      42
    2634    2616    2622      42    2634    2637    2640       2    2634    2637
    2643       2    2634    2637    2646      55    2643    2637    2640       1
    2646    2637    2640       2    2646    2637    2643       2    2649    2646
    2637     104    2658    2649    2646     106    2664    2658    2649      82
    2667    2664    2658      11    2673    2667    2664      13    2676    2673
    2667     107    2682    2676    2673     109    2688    2682    2676     112
    2691    2688    2682     114    2700    2688    2682     115    2700    2688
    2691      26    2700    2703    2673     116    2703    2673    2667      93
    2703    2673    2676     117    2703    2700    2688     118    2706    2703
    2673      96    2706    2703    2700     119    2709    2658    2649      97
    2709    2658    2664      42    2709    2715    2667      99    2709    2727
    2730     100    2715    2667    2664      42    2715    2667    2673      44
    2715    2709    2658      99    2721    2715    2667     101    2721    2715
    2709     101    2727    2709    2658      42    2727    2709    2715      42
    2727    2730    2733       2    2727    2730    2736       2    2727    2730
    2739      55    2736    2730    2733       1    2739    2730    2733       2
    2739    2730    2736       2    2742    2739    2730     104    2751    2742
    2739     106    2757    2751    2742      82    2760    2757    2751      11
    2766    2760    2757      13    2769    2766    2760     107    2775    2769
    2766     109    2781    2775    2769     112    2784    2781    2775     114
    2793    2781    2775     115    2793    2781    2784      26    2793    2796
    2766     116    2796    2766    2760      93    2796    2766    2769     117
    2796    2793    2781     118    2799    2796    2766      96    2799    2796
    2793     119    2802    2751    2742      97    2802    2751    2757      42
    2802    2808    2760      99    2808    2760    2757      42    2808    2760
    2766      44    2808    2802    2751      99    2814    2808    2760     101
    2814    2808    2802     101    2820    2802    2751     101    2820    2802
    2808     101
%FLAG DIHEDRALS_INC_HYDROGEN                                                    
%FORMAT(10I8)                                                                   
    1374    1371    1368    1359       2    1377    1371    1368    1359       2
    1383    1380    1371    1368       7    1383    1380    1371    1374       8
    1383    1380    1371    1377       8    1386    1380    1371    1374       7
    1386    1380    1371    1377       7    1389    1386    1380    1383       2
    1392    1389    1386    1380       2    1398    1395    1389    1392      18
    1401    1398    1395    1389      19    1407    1404    1398    1401      21
    1416    1413    1410    1407      25    1419    1413    1410    1407      25
    1422    1410    1413    1416      25    1422    1410    1413    1419      25
    1428    1425    1422    1410      28    1434    1395    1389    1392      18
    1434    1395    1398    1401      19    1434    1431    1425    1428      28
    1437    1380    1371    1374       8    1437    1380    1371    1377       8
    1437    1443    1389    1392       8    1440    1437    1380    1371       8
    1440    1437    1380    1383       8    1440    1437    1380    1386       7
    1440    1437   -1380    1386      35    1440    1437    1443    1389       8
    1443    1437    1380    1383       8    1446    1443    1389    1386       7
    1446    1443   -1389    1386      35    1446    1443    1389    1392       8
    1446    1443    1389    1395       8    1446    1443    1437    1380      36
    1446    1443    1437    1440       8    1449    1443    1389    1386       7
    1449    1443   -1389    1386      35    1449    1443    1389    1392       8
    1449    1443    1389    1395       8    1449    1443    1437    1380      36
    1449    1443    1437    1440       8    1452    1437    1380    1383       7
    1452    1437   -1380    1383      35    1452    1437    1443    1446       7
    1452    1437   -1443    1446      35    1452    1437    1443    1449       7
    1452    1437   -1443    1449      35    1455    1452    1437    1380       7
    1455    1452   -1437    1380      36    1455    1452    1437    1440      39
    1455    1452    1437    1443       7    1455    1452   -1437    1443      36
    1278    1275    1272    1263       2    1281    1275    1272    1263       2
    1287    1284    1275    1272       7    1287    1284   -1275    1272       8
    1287    1284    1275    1278       8    1287    1284    1275    1281       8
    1290    1284    1275    1278       7    1290    1284    1275    1281       7
    1293    1290    1284    1287       2    1296    1293    1290    1284       2
    1302    1299    1293    1296      18    1305    1302    1299    1293      19
    1311    1308    1302    1305      21    1320    1317    1314    1311      25
    1323    1317    1314    1311      25    1326    1314    1317    1320      25
    1326    1314    1317    1323      25    1332    1329    1326    1314      28
    1338    1299    1293    1296      18    1338    1299    1302    1305      19
    1338    1335    1329    1332      28    1341    1284    1275    1278       8
    1341    1284    1275    1281       8    1341    1347    1293    1296       8
    1344    1341    1284    1275       8    1344    1341    1284    1287       8
    1344    1341    1284    1290       7    1344    1341   -1284    1290      35
    1344    1341    1347    1293       8    1344    1341    1356    1359       2
    1347    1341    1284    1287       8    1350    1347    1293    1290       7
    1350    1347   -1293    1290      35    1350    1347    1293    1296       8
    1350    1347    1293    1299       8    1350    1347    1341    1284      36
    1350    1347    1341    1344       8    1353    1347    1293    1290       7
    1353    1347   -1293    1290      35    1353    1347    1293    1296       8
    1353    1347    1293    1299       8    1353    1347    1341    1284      36
    1353    1347    1341    1344       8    1356    1341    1284    1287       7
    1356    1341   -1284    1287      35    1356    1341    1347    1350       7
    1356    1341   -1347    1350      35    1356    1341    1347    1353       7
    1356    1341   -1347    1353      35    1182    1179    1176    1167       2
    1185    1179    1176    1167       2    1191    1188    1179    1176       7
    1191    1188   -1179    1176       8    1191    1188    1179    1182       8
    1191    1188    1179    1185       8    1194    1188    1179    1182       7
    1194    1188    1179    1185       7    1197    1194    1188    1191       2
    1200    1197    1194    1188       2    1206    1203    1197    1200      18
    1209    1206    1203    1197      19    1215    1212    1206    1209      21
    1224    1221    1218    1215      25    1227    1221    1218    1215      25
    1230    1218    1221    1224      25    1230    1218    1221    1227      25
    1236    1233    1230    1218      28    1242    1203    1197    1200      18
    1242    1203    1206    1209      19    1242    1239    1233    1236      28
    1245    1188    1179    1182       8    1245    1188    1179    1185       8
    1245    1251    1197    1200       8    1248    1245    1188    1179       8
    1248    1245    1188    1191       8    1248    1245    1188    1194       7
    1248    1245   -1188    1194      35    1248    1245    1251    1197       8
    1248    1245    1260    1263       2    1251    1245    1188    1191       8
    1254    1251    1197    1194       7    1254    1251   -1197    1194      35
    1254    1251    1197    1200       8    1254    1251    1197    1203       8
    1254    1251    1245    1188      36    1254    1251    1245    1248       8
    1257    1251    1197    1194       7    1257    1251   -1197    1194      35
    1257    1251    1197    1200       8    1257    1251    1197    1203       8
    1257    1251    1245    1188      36    1257    1251    1245    1248       8
    1260    1245    1188    1191       7    1260    1245   -1188    1191      35
    1260    1245    1251    1254       7    1260    1245   -1251    1254      35
    1260    1245    1251    1257       7    1260    1245   -1251    1257      35
    1083    1080    1077    1068       2    1086    1080    1077    1068       2
    1092    1089    1080    1077       7    1092    1089   -1080    1077       8
    1092    1089    1080    1083       8    1092    1089    1080    1086       8
    1095    1089    1080    1083       7    1095    1089    1080    1086       7
    1098    1095    1089    1092       2    1101    1098    1095    1089       2
    1107    1104    1098    1101      18    1110    1107    1104    1098      19
    1116    1113    1107    1110      21    1128    1125    1119    1116      56
    1128    1125    1119    1122      56    1134    1131    1125    1128      57
    1137    1134    1131    1125      25    1140    1134    1131    1125      25
    1143    1131    1125    1128      57    1143    1131    1134    1137      25
    1143    1131    1134    1140      25    1146    1104    1098    1101      18
    1146    1104    1107    1110      19    1149    1089    1080    1083       8
    1149    1089    1080    1086       8    1149    1155    1098    1101       8
    1152    1149    1089    1080       8    1152    1149    1089    1092       8
    1152    1149    1089    1095       7    1152    1149   -1089    1095      35
    1152    1149    1155    1098       8    1152    1149    1164    1167       2
    1155    1149    1089    1092       8    1158    1155    1098    1095       7
    1158    1155   -1098    1095      35    1158    1155    1098    1101       8
    1158    1155    1098    1104       8    1158    1155    1149    1089      36
    1158    1155    1149    1152       8    1161    1155    1098    1095       7
    1161    1155   -1098    1095      35    1161    1155    1098    1101       8
    1161    1155    1098    1104       8    1161    1155    1149    1089      36
    1161    1155    1149    1152       8    1164    1149    1089    1092       7
    1164    1149   -1089    1092      35    1164    1149    1155    1158       7
    1164    1149   -1155    1158      35    1164    1149    1155    1161       7
    1164    1149   -1155    1161      35     987     984     981     972       2
     990     984     981     972       2     996     993     984     981       7
     996     993    -984     981       8     996     993     984     987       8
     996     993     984     990       8     999     993     984     987       7
     999     993     984     990       7    1002     999     993     996       2
    1005    1002     999     993       2    1011    1008    1002    1005      18
    1014    1011    1008    1002      19    1020    1017    1011    1014      21
    1029    1026    1023    1020      25    1032    1026    1023    1020      25
    1035    1023    1026    1029      25    1035    1023    1026    1032      25
    1041    1038    1035    1023      28    1047    1008    1002    1005      18
    1047    1008    1011    1014      19    1047    1044    1038    1041      28
    1050     993     984     987       8    1050     993     984     990       8
    1050    1056    1002    1005       8    1053    1050     993     984       8
    1053    1050     993     996       8    1053    1050     993     999       7
    1053    1050    -993     999      35    1053    1050    1056    1002       8
    1053    1050    1065    1068       2    1056    1050     993     996       8
    1059    1056    1002     999       7    1059    1056   -1002     999      35
    1059    1056    1002    1005       8    1059    1056    1002    1008       8
    1059    1056    1050     993      36    1059    1056    1050    1053       8
    1062    1056    1002     999       7    1062    1056   -1002     999      35
    1062    1056    1002    1005       8    1062    1056    1002    1008       8
    1062    1056    1050     993      36    1062    1056    1050    1053       8
    1065    1050     993     996       7    1065    1050    -993     996      35
    1065    1050    1056    1059       7    1065    1050   -1056    1059      35
    1065    1050    1056    1062       7    1065    1050   -1056    1062      35
     888     885     882     873       2     891     885     882     873       2
     897     894     885     882       7     897     894    -885     882       8
     897     894     885     888       8     897     894     885     891       8
     900     894     885     888       7     900     894     885     891       7
     903     900     894     897       2     906     903     900     894       2
     912     909     903     906      18     915     912     909     903      19
     921     918     912     915      21     933     930     924     921      56
     933     930     924     927      56     939     936     930     933      57
     942     939     936     930      25     945     939     936     930      25
     948     936     930     933      57     948     936     939     942      25
     948     936     939     945      25     951     909     903     906      18
     951     909     912     915      19     954     894     885     888       8
     954     894     885     891       8     954     960     903     906       8
     957     954     894     885       8     957     954     894     897       8
     957     954     894     900       7     957     954    -894     900      35
     957     954     960     903       8     957     954     969     972       2
     960     954     894     897       8     963     960     903     900       7
     963     960    -903     900      35     963     960     903     906       8
     963     960     903     909       8     963     960     954     894      36
     963     960     954     957       8     966     960     903     900       7
     966     960    -903     900      35     966     960     903     906       8
     966     960     903     909       8     966     960     954     894      36
     966     960     954     957       8     969     954     894     897       7
     969     954    -894     897      35     969     954     960     963       7
     969     954    -960     963      35     969     954     960     966       7
     969     954    -960     966      35     792     789     786     777       2
     795     789     786     777       2     801     798     789     786       7
     801     798    -789     786       8     801     798     789     792       8
     801     798     789     795       8     804     798     789     792       7
     804     798     789     795       7     807     804     798     801       2
     810     807     804     798       2     816     813     807     810      18
     819     816     813     807      19     825     822     816     819      21
     834     831     828     825      25     837     831     828     825      25
     840     828     831     834      25     840     828     831     837      25
     846     843     840     828      28     852     813     807     810      18
     852     813     816     819      19     852     849     843     846      28
     855     798     789     792       8     855     798     789     795       8
     855     861     807     810       8     858     855     798     789       8
     858     855     798     801       8     858     855     798     804       7
     858     855    -798     804      35     858     855     861     807       8
     858     855     870     873       2     861     855     798     801       8
     864     861     807     804       7     864     861    -807     804      35
     864     861     807     810       8     864     861     807     813       8
     864     861     855     798      36     864     861     855     858       8
     867     861     807     804       7     867     861    -807     804      35
     867     861     807     810       8     867     861     807     813       8
     867     861     855     798      36     867     861     855     858       8
     870     855     798     801       7     870     855    -798     801      35
     870     855     861     864       7     870     855    -861     864      35
     870     855     861     867       7     870     855    -861     867      35
     696     693     690     681       2     699     693     690     681       2
     705     702     693     690       7     705     702    -693     690       8
     705     702     693     696       8     705     702     693     699       8
     708     702     693     696       7     708     702     693     699       7
     711     708     702     705       2     714     711     708     702       2
     720     717     711     714      18     723     720     717     711      19
     729     726     720     723      21     738     735     732     729      25
     741     735     732     729      25     744     732     735     738      25
     744     732     735     741      25     750     747     744     732      28
     756     717     711     714      18     756     717     720     723      19
     756     753     747     750      28     759     702     693     696       8
     759     702     693     699       8     759     765     711     714       8
     762     759     702     693       8     762     759     702     705       8
     762     759     702     708       7     762     759    -702     708      35
     762     759     765     711       8     762     759     774     777       2
     765     759     702     705       8     768     765     711     708       7
     768     765    -711     708      35     768     765     711     714       8
     768     765     711     717       8     768     765     759     702      36
     768     765     759     762       8     771     765     711     708       7
     771     765    -711     708      35     771     765     711     714       8
     771     765     711     717       8     771     765     759     702      36
     771     765     759     762       8     774     759     702     705       7
     774     759    -702     705      35     774     759     765     768       7
     774     759    -765     768      35     774     759     765     771       7
     774     759    -765     771      35     597     594     591     582       2
     600     594     591     582       2     606     603     594     591       7
     606     603    -594     591       8     606     603     594     597       8
     606     603     594     600       8     609     603     594     597       7
     609     603     594     600       7     612     609     603     606       2
     615     612     609     603       2     621     618     612     615      18
     624     621     618     612      19     630     627     621     624      21
     642     639     633     630      56     642     639     633     636      56
     648     645     639     642      57     651     648     645     639      25
     654     648     645     639      25     657     645     639     642      57
     657     645     648     651      25     657     645     648     654      25
     660     618     612     615      18     660     618     621     624      19
     663     603     594     597       8     663     603     594     600       8
     663     669     612     615       8     666     663     603     594       8
     666     663     603     606       8     666     663     603     609       7
     666     663    -603     609      35     666     663     669     612       8
     666     663     678     681       2     669     663     603     606       8
     672     669     612     609       7     672     669    -612     609      35
     672     669     612     615       8     672     669     612     618       8
     672     669     663     603      36     672     669     663     666       8
     675     669     612     609       7     675     669    -612     609      35
     675     669     612     615       8     675     669     612     618       8
     675     669     663     603      36     675     669     663     666       8
     678     663     603     606       7     678     663    -603     606      35
     678     663     669     672       7     678     663    -669     672      35
     678     663     669     675       7     678     663    -669     675      35
     498     495     492     483       2     501     495     492     483       2
     507     504     495     492       7     507     504    -495     492       8
     507     504     495     498       8     507     504     495     501       8
     510     504     495     498       7     510     504     495     501       7
     513     510     504     507       2     516     513     510     504       2
     522     519     513     516      18     525     522     519     513      19
     531     528     522     525      21     543     540     534     531      56
     543     540     534     537      56     549     546     540     543      57
     552     549     546     540      25     555     549     546     540      25
     558     546     540     543      57     558     546     549     552      25
     558     546     549     555      25     561     519     513     516      18
     561     519     522     525      19     564     504     495     498       8
     564     504     495     501       8     564     570     513     516       8
     567     564     504     495       8     567     564     504     507       8
     567     564     504     510       7     567     564    -504     510      35
     567     564     570     513       8     567     564     579     582       2
     570     564     504     507       8     573     570     513     510       7
     573     570    -513     510      35     573     570     513     516       8
     573     570     513     519       8     573     570     564     504      36
     573     570     564     567       8     576     570     513     510       7
     576     570    -513     510      35     576     570     513     516       8
     576     570     513     519       8     576     570     564     504      36
     576     570     564     567       8     579     564     504     507       7
     579     564    -504     507      35     579     564     570     573       7
     579     564    -570     573      35     579     564     570     576       7
     579     564    -570     576      35     402     399     396     387       2
     405     399     396     387       2     411     408     399     396       7
     411     408    -399     396       8     411     408     399     402       8
     411     408     399     405       8     414     408     399     402       7
     414     408     399     405       7     417     414     408     411       2
     420     417     414     408       2     426     423     417     420      18
     429     426     423     417      19     435     432     426     429      21
     444     441     438     435      25     447     441     438     435      25
     450     438     441     444      25     450     438     441     447      25
     456     453     450     438      28     462     423     417     420      18
     462     423     426     429      19     462     459     453     456      28
     465     408     399     402       8     465     408     399     405       8
     465     471     417     420       8     468     465     408     399       8
     468     465     408     411       8     468     465     408     414       7
     468     465    -408     414      35     468     465     471     417       8
     468     465     480     483       2     471     465     408     411       8
     474     471     417     414       7     474     471    -417     414      35
     474     471     417     420       8     474     471     417     423       8
     474     471     465     408      36     474     471     465     468       8
     477     471     417     414       7     477     471    -417     414      35
     477     471     417     420       8     477     471     417     423       8
     477     471     465     408      36     477     471     465     468       8
     480     465     408     411       7     480     465    -408     411      35
     480     465     471     474       7     480     465    -471     474      35
     480     465     471     477       7     480     465    -471     477      35
     303     300     297     288       2     306     300     297     288       2
     312     309     300     297       7     312     309    -300     297       8
     312     309     300     303       8     312     309     300     306       8
     315     309     300     303       7     315     309     300     306       7
     318     315     309     312       2     321     318     315     309       2
     327     324     318     321      18     330     327     324     318      19
     336     333     327     330      21     348     345     339     336      56
     348     345     339     342      56     354     351     345     348      57
     357     354     351     345      25     360     354     351     345      25
     363     351     345     348      57     363     351     354     357      25
     363     351     354     360      25     366     324     318     321      18
     366     324     327     330      19     369     309     300     303       8
     369     309     300     306       8     369     375     318     321       8
     372     369     309     300       8     372     369     309     312       8
     372     369     309     315       7     372     369    -309     315      35
     372     369     375     318       8     372     369     384     387       2
     375     369     309     312       8     378     375     318     315       7
     378     375    -318     315      35     378     375     318     321       8
     378     375     318     324       8     378     375     369     309      36
     378     375     369     372       8     381     375     318     315       7
     381     375    -318     315      35     381     375     318     321       8
     381     375     318     324       8     381     375     369     309      36
     381     375     369     372       8     384     369     309     312       7
     384     369    -309     312      35     384     369     375     378       7
     384     369    -375     378      35     384     369     375     381       7
     384     369    -375     381      35     207     204     201     192       2
     210     204     201     192       2     216     213     204     201       7
     216     213    -204     201       8     216     213     204     207       8
     216     213     204     210       8     219     213     204     207       7
     219     213     204     210       7     222     219     213     216       2
     225     222     219     213       2     231     228     222     225      18
     234     231     228     222      19     240     237     231     234      21
     249     246     243     240      25     252     246     243     240      25
     255     243     246     249      25     255     243     246     252      25
     261     258     255     243      28     267     228     222     225      18
     267     228     231     234      19     267     264     258     261      28
     270     213     204     207       8     270     213     204     210       8
     270     276     222     225       8     273     270     213     204       8
     273     270     213     216       8     273     270     213     219       7
     273     270    -213     219      35     273     270     276     222       8
     273     270     285     288       2     276     270     213     216       8
     279     276     222     219       7     279     276    -222     219      35
     279     276     222     225       8     279     276     222     228       8
     279     276     270     213      36     279     276     270     273       8
     282     276     222     219       7     282     276    -222     219      35
     282     276     222     225       8     282     276     222     228       8
     282     276     270     213      36     282     276     270     273       8
     285     270     213     216       7     285     270    -213     216      35
     285     270     276     279       7     285     270    -276     279      35
     285     270     276     282       7     285     270    -276     282      35
     108     105     102      93       2     111     105     102      93       2
     117     114     105     102       7     117     114    -105     102       8
     117     114     105     108       8     117     114     105     111       8
     120     114     105     108       7     120     114     105     111       7
     123     120     114     117       2     126     123     120     114       2
     132     129     123     126      18     135     132     129     123      19
     141     138     132     135      21     153     150     144     141      56
     153     150     144     147      56     159     156     150     153      57
     162     159     156     150      25     165     159     156     150      25
     168     156     150     153      57     168     156     159     162      25
     168     156     159     165      25     171     129     123     126      18
     171     129     132     135      19     174     114     105     108       8
     174     114     105     111       8     174     180     123     126       8
     177     174     114     105       8     177     174     114     117       8
     177     174     114     120       7     177     174    -114     120      35
     177     174     180     123       8     177     174     189     192       2
     180     174     114     117       8     183     180     123     120       7
     183     180    -123     120      35     183     180     123     126       8
     183     180     123     129       8     183     180     174     114      36
     183     180     174     177       8     186     180     123     120       7
     186     180    -123     120      35     186     180     123     126       8
     186     180     123     129       8     186     180     174     114      36
     186     180     174     177       8     189     174     114     117       7
     189     174    -114     117      35     189     174     180     183       7
     189     174    -180     183      35     189     174     180     186       7
     189     174    -180     186      35       0       3       6       9      39
       0       3       6      12      39       0       3       6      15      39
      18      15       6       3       7      18      15       6       9       8
      18      15       6      12       8      21      15       6       9       7
      21      15       6      12       7      24      21      15      18       2
      27      24      21      15       2      33      30      24      27      18
      36      33      30      24      19      42      39      33      36      21
      54      51      45      42      56      54      51      45      48      56
      60      57      51      54      57      63      60      57      51      25
      66      60      57      51      25      69      57      51      54      57
      69      57      60      63      25      69      57      60      66      25
      72      30      24      27      18      72      30      33      36      19
      75      15       6       9       8      75      15       6      12       8
      75      81      24      27       8      78      75      15       6       8
      78      75      15      18       8      78      75      15      21       7
      78      75     -15      21      35      78      75      81      24       8
      78      75      90      93       2      81      75      15      18       8
      84      81      24      21       7      84      81     -24      21      35
      84      81      24      27       8      84      81      24      30       8
      84      81      75      15      36      84      81      75      78       8
      87      81      24      21       7      87      81     -24      21      35
      87      81      24      27       8      87      81      24      30       8
      87      81      75      15      36      87      81      75      78       8
      90      75      15      18       7      90      75     -15      18      35
      90      75      81      84       7      90      75     -81      84      35
      90      75      81      87       7      90      75     -81      87      35
    1467    1464    1461    1458      39    1470    1464    1461    1458      39
    1473    1464    1461    1458      39    1476    1473    1464    1461       7
    1476    1473   -1464    1461      35    1476    1473    1464    1467       8
    1476    1473    1464    1470       8    1479    1473    1464    1467       7
    1479    1473   -1464    1467      35    1479    1473    1464    1470       7
    1479    1473   -1464    1470      35    1482    1479    1473    1476       2
    1485    1482    1479    1473       2    1491    1488    1482    1485      18
    1494    1491    1488    1482      62    1500    1497    1491    1488      63
    1500    1497    1491    1494      63    1503    1497    1491    1494      63
    1506    1503    1497    1500      64    1509    1503    1497    1500      64
    1512    1509    1503    1497      56    1512    1509    1503    1506      56
    1512    1509    1515    1488      56    1515    1488    1482    1485      18
    1515    1488    1491    1494      62    1518    1515    1509    1512      56
    1521    1473    1464    1467       8    1521    1473    1464    1470       8
    1521    1527    1482    1485       8    1524    1521    1473    1464       8
    1524    1521    1473    1476       8    1524    1521    1473    1479       7
    1524    1521   -1473    1479      35    1524    1521    1527    1482       8
    1524    1521    1539    1542       2    1527    1521    1473    1476       8
    1530    1527    1482    1479       7    1530    1527   -1482    1479      35
    1530    1527    1482    1485       8    1530    1527    1482    1488       8
    1530    1527    1521    1473       8    1530    1527    1521    1524       8
    1533    1527    1482    1485       8    1533    1527    1521    1524       7
    1533    1527   -1521    1524      35    1536    1533    1527    1482       7
    1536    1533   -1527    1482      36    1536    1533    1527    1521       7
    1536    1533   -1527    1521      36    1536    1533    1527    1530      39
    1539    1521    1473    1476       7    1539    1521   -1473    1476      35
    1539    1521    1527    1530       7    1539    1521   -1527    1530      35
    1557    1554    1551    1542       2    1560    1554    1551    1542       2
    1566    1563    1554    1551       7    1566    1563   -1554    1551      35
    1566    1563    1554    1557       8    1566    1563    1554    1560       8
    1569    1563    1554    1557       7    1569    1563   -1554    1557      35
    1569    1563    1554    1560       7    1569    1563   -1554    1560      35
    1572    1569    1563    1566       2    1575    1572    1569    1563       2
    1581    1578    1572    1575      18    1584    1581    1578    1572      62
    1590    1587    1581    1578      63    1590    1587    1581    1584      63
    1593    1587    1581    1584      63    1596    1593    1587    1590      64
    1599    1593    1587    1590      64    1602    1599    1593    1587      56
    1602    1599    1593    1596      56    1602    1599    1605    1578      56
    1605    1578    1572    1575      18    1605    1578    1581    1584      62
    1608    1605    1599    1602      56    1611    1563    1554    1557       8
    1611    1563    1554    1560       8    1611    1617    1572    1575       8
    1614    1611    1563    1554       8    1614    1611    1563    1566       8
    1614    1611    1563    1569       7    1614    1611   -1563    1569      35
    1614    1611    1617    1572       8    1614    1611    1629    1632       2
    1617    1611    1563    1566       8    1620    1617    1572    1569       7
    1620    1617   -1572    1569      35    1620    1617    1572    1575       8
    1620    1617    1572    1578       8    1620    1617    1611    1563       8
    1620    1617    1611    1614       8    1623    1617    1572    1575       8
    1623    1617    1611    1614       7    1623    1617   -1611    1614      35
    1626    1623    1617    1572       7    1626    1623   -1617    1572      36
    1626    1623    1617    1611       7    1626    1623   -1617    1611      36
    1626    1623    1617    1620      39    1629    1611    1563    1566       7
    1629    1611   -1563    1566      35    1629    1611    1617    1620       7
    1629    1611   -1617    1620      35    1647    1644    1641    1632       2
    1650    1644    1641    1632       2    1656    1653    1644    1641       7
    1656    1653   -1644    1641      35    1656    1653    1644    1647       8
    1656    1653    1644    1650       8    1659    1653    1644    1647       7
    1659    1653   -1644    1647      35    1659    1653    1644    1650       7
    1659    1653   -1644    1650      35    1662    1659    1653    1656       2
    1665    1662    1659    1653       2    1671    1668    1662    1665      18
    1674    1671    1668    1662      62    1680    1677    1671    1668      63
    1680    1677    1671    1674      63    1683    1677    1671    1674      63
    1686    1683    1677    1680      64    1689    1683    1677    1680      64
    1692    1689    1683    1677      56    1692    1689    1683    1686      56
    1692    1689    1695    1668      56    1695    1668    1662    1665      18
    1695    1668    1671    1674      62    1698    1695    1689    1692      56
    1701    1653    1644    1647       8    1701    1653    1644    1650       8
    1701    1707    1662    1665       8    1704    1701    1653    1644       8
    1704    1701    1653    1656       8    1704    1701    1653    1659       7
    1704    1701   -1653    1659      35    1704    1701    1707    1662       8
    1704    1701    1719    1722       2    1707    1701    1653    1656       8
    1710    1707    1662    1659       7    1710    1707   -1662    1659      35
    1710    1707    1662    1665       8    1710    1707    1662    1668       8
    1710    1707    1701    1653       8    1710    1707    1701    1704       8
    1713    1707    1662    1665       8    1713    1707    1701    1704       7
    1713    1707   -1701    1704      35    1716    1713    1707    1662       7
    1716    1713   -1707    1662      36    1716    1713    1707    1701       7
    1716    1713   -1707    1701      36    1716    1713    1707    1710      39
    1719    1701    1653    1656       7    1719    1701   -1653    1656      35
    1719    1701    1707    1710       7    1719    1701   -1707    1710      35
    1737    1734    1731    1722       2    1740    1734    1731    1722       2
    1746    1743    1734    1731       7    1746    1743   -1734    1731      35
    1746    1743    1734    1737       8    1746    1743    1734    1740       8
    1749    1743    1734    1737       7    1749    1743   -1734    1737      35
    1749    1743    1734    1740       7    1749    1743   -1734    1740      35
    1752    1749    1743    1746       2    1755    1752    1749    1743       2
    1761    1758    1752    1755      18    1764    1761    1758    1752      62
    1770    1767    1761    1758      63    1770    1767    1761    1764      63
    1773    1767    1761    1764      63    1776    1773    1767    1770      23
    1779    1776    1773    1767      25    1782    1776    1773    1767      25
    1785    1773    1767    1770      23    1785    1773    1776    1779      25
    1785    1773    1776    1782      25    1788    1758    1752    1755      18
    1788    1758    1761    1764      62    1794    1743    1734    1737       8
    1794    1743    1734    1740       8    1794    1800    1752    1755       8
    1797    1794    1743    1734       8    1797    1794    1743    1746       8
    1797    1794    1743    1749       7    1797    1794   -1743    1749      35
    1797    1794    1800    1752       8    1797    1794    1812    1815       2
    1800    1794    1743    1746       8    1803    1800    1752    1749       7
    1803    1800   -1752    1749      35    1803    1800    1752    1755       8
    1803    1800    1752    1758       8    1803    1800    1794    1743       8
    1803    1800    1794    1797       8    1806    1800    1752    1755       8
    1806    1800    1794    1797       7    1806    1800   -1794    1797      35
    1809    1806    1800    1752       7    1809    1806   -1800    1752      36
    1809    1806    1800    1794       7    1809    1806   -1800    1794      36
    1809    1806    1800    1803      39    1812    1794    1743    1746       7
    1812    1794   -1743    1746      35    1812    1794    1800    1803       7
    1812    1794   -1800    1803      35    1830    1827    1824    1815       2
    1833    1827    1824    1815       2    1839    1836    1827    1824       7
    1839    1836   -1827    1824      35    1839    1836    1827    1830       8
    1839    1836    1827    1833       8    1842    1836    1827    1830       7
    1842    1836   -1827    1830      35    1842    1836    1827    1833       7
    1842    1836   -1827    1833      35    1845    1842    1836    1839       2
    1848    1845    1842    1836       2    1854    1851    1845    1848      18
    1857    1854    1851    1845      62    1863    1860    1854    1851      63
    1863    1860    1854    1857      63    1866    1860    1854    1857      63
    1869    1866    1860    1863      64    1872    1866    1860    1863      64
    1875    1872    1866    1860      56    1875    1872    1866    1869      56
    1875    1872    1878    1851      56    1878    1851    1845    1848      18
    1878    1851    1854    1857      62    1881    1878    1872    1875      56
    1884    1836    1827    1830       8    1884    1836    1827    1833       8
    1884    1890    1845    1848       8    1887    1884    1836    1827       8
    1887    1884    1836    1839       8    1887    1884    1836    1842       7
    1887    1884   -1836    1842      35    1887    1884    1890    1845       8
    1887    1884    1902    1905       2    1890    1884    1836    1839       8
    1893    1890    1845    1842       7    1893    1890   -1845    1842      35
    1893    1890    1845    1848       8    1893    1890    1845    1851       8
    1893    1890    1884    1836       8    1893    1890    1884    1887       8
    1896    1890    1845    1848       8    1896    1890    1884    1887       7
    1896    1890   -1884    1887      35    1899    1896    1890    1845       7
    1899    1896   -1890    1845      36    1899    1896    1890    1884       7
    1899    1896   -1890    1884      36    1899    1896    1890    1893      39
    1902    1884    1836    1839       7    1902    1884   -1836    1839      35
    1902    1884    1890    1893       7    1902    1884   -1890    1893      35
    1920    1917    1914    1905       2    1923    1917    1914    1905       2
    1929    1926    1917    1914       7    1929    1926   -1917    1914      35
    1929    1926    1917    1920       8    1929    1926    1917    1923       8
    1932    1926    1917    1920       7    1932    1926   -1917    1920      35
    1932    1926    1917    1923       7    1932    1926   -1917    1923      35
    1935    1932    1926    1929       2    1938    1935    1932    1926       2
    1944    1941    1935    1938      18    1947    1944    1941    1935      62
    1953    1950    1944    1941      63    1953    1950    1944    1947      63
    1956    1950    1944    1947      63    1959    1956    1950    1953      23
    1962    1959    1956    1950      25    1965    1959    1956    1950      25
    1968    1956    1950    1953      23    1968    1956    1959    1962      25
    1968    1956    1959    1965      25    1971    1941    1935    1938      18
    1971    1941    1944    1947      62    1977    1926    1917    1920       8
    1977    1926    1917    1923       8    1977    1983    1935    1938       8
    1980    1977    1926    1917       8    1980    1977    1926    1929       8
    1980    1977    1926    1932       7    1980    1977   -1926    1932      35
    1980    1977    1983    1935       8    1980    1977    1995    1998       2
    1983    1977    1926    1929       8    1986    1983    1935    1932       7
    1986    1983   -1935    1932      35    1986    1983    1935    1938       8
    1986    1983    1935    1941       8    1986    1983    1977    1926       8
    1986    1983    1977    1980       8    1989    1983    1935    1938       8
    1989    1983    1977    1980       7    1989    1983   -1977    1980      35
    1992    1989    1983    1935       7    1992    1989   -1983    1935      36
    1992    1989    1983    1977       7    1992    1989   -1983    1977      36
    1992    1989    1983    1986      39    1995    1977    1926    1929       7
    1995    1977   -1926    1929      35    1995    1977    1983    1986       7
    1995    1977   -1983    1986      35    2013    2010    2007    1998       2
    2016    2010    2007    1998       2    2022    2019    2010    2007       7
    2022    2019   -2010    2007      35    2022    2019    2010    2013       8
    2022    2019    2010    2016       8    2025    2019    2010    2013       7
    2025    2019   -2010    2013      35    2025    2019    2010    2016       7
    2025    2019   -2010    2016      35    2028    2025    2019    2022       2
    2031    2028    2025    2019       2    2037    2034    2028    2031      18
    2040    2037    2034    2028      62    2046    2043    2037    2034      63
    2046    2043    2037    2040      63    2049    2043    2037    2040      63
    2052    2049    2043    2046      64    2055    2049    2043    2046      64
    2058    2055    2049    2043      56    2058    2055    2049    2052      56
    2058    2055    2061    2034      56    2061    2034    2028    2031      18
    2061    2034    2037    2040      62    2064    2061    2055    2058      56
    2067    2019    2010    2013       8    2067    2019    2010    2016       8
    2067    2073    2028    2031       8    2070    2067    2019    2010       8
    2070    2067    2019    2022       8    2070    2067    2019    2025       7
    2070    2067   -2019    2025      35    2070    2067    2073    2028       8
    2070    2067    2085    2088       2    2073    2067    2019    2022       8
    2076    2073    2028    2025       7    2076    2073   -2028    2025      35
    2076    2073    2028    2031       8    2076    2073    2028    2034       8
    2076    2073    2067    2019       8    2076    2073    2067    2070       8
    2079    2073    2028    2031       8    2079    2073    2067    2070       7
    2079    2073   -2067    2070      35    2082    2079    2073    2028       7
    2082    2079   -2073    2028      36    2082    2079    2073    2067       7
    2082    2079   -2073    2067      36    2082    2079    2073    2076      39
    2085    2067    2019    2022       7    2085    2067   -2019    2022      35
    2085    2067    2073    2076       7    2085    2067   -2073    2076      35
    2103    2100    2097    2088       2    2106    2100    2097    2088       2
    2112    2109    2100    2097       7    2112    2109   -2100    2097      35
    2112    2109    2100    2103       8    2112    2109    2100    2106       8
    2115    2109    2100    2103       7    2115    2109   -2100    2103      35
    2115    2109    2100    2106       7    2115    2109   -2100    2106      35
    2118    2115    2109    2112       2    2121    2118    2115    2109       2
    2127    2124    2118    2121      18    2130    2127    2124    2118      62
    2136    2133    2127    2124      63    2136    2133    2127    2130      63
    2139    2133    2127    2130      63    2142    2139    2133    2136      64
    2145    2139    2133    2136      64    2148    2145    2139    2133      56
    2148    2145    2139    2142      56    2148    2145    2151    2124      56
    2151    2124    2118    2121      18    2151    2124    2127    2130      62
    2154    2151    2145    2148      56    2157    2109    2100    2103       8
    2157    2109    2100    2106       8    2157    2163    2118    2121       8
    2160    2157    2109    2100       8    2160    2157    2109    2112       8
    2160    2157    2109    2115       7    2160    2157   -2109    2115      35
    2160    2157    2163    2118       8    2160    2157    2175    2178       2
    2163    2157    2109    2112       8    2166    2163    2118    2115       7
    2166    2163   -2118    2115      35    2166    2163    2118    2121       8
    2166    2163    2118    2124       8    2166    2163    2157    2109       8
    2166    2163    2157    2160       8    2169    2163    2118    2121       8
    2169    2163    2157    2160       7    2169    2163   -2157    2160      35
    2172    2169    2163    2118       7    2172    2169   -2163    2118      36
    2172    2169    2163    2157       7    2172    2169   -2163    2157      36
    2172    2169    2163    2166      39    2175    2157    2109    2112       7
    2175    2157   -2109    2112      35    2175    2157    2163    2166       7
    2175    2157   -2163    2166      35    2193    2190    2187    2178       2
    2196    2190    2187    2178       2    2202    2199    2190    2187       7
    2202    2199   -2190    2187      35    2202    2199    2190    2193       8
    2202    2199    2190    2196       8    2205    2199    2190    2193       7
    2205    2199   -2190    2193      35    2205    2199    2190    2196       7
    2205    2199   -2190    2196      35    2208    2205    2199    2202       2
    2211    2208    2205    2199       2    2217    2214    2208    2211      18
    2220    2217    2214    2208      62    2226    2223    2217    2214      63
    2226    2223    2217    2220      63    2229    2223    2217    2220      63
    2232    2229    2223    2226      23    2235    2232    2229    2223      25
    2238    2232    2229    2223      25    2241    2229    2223    2226      23
    2241    2229    2232    2235      25    2241    2229    2232    2238      25
    2244    2214    2208    2211      18    2244    2214    2217    2220      62
    2250    2199    2190    2193       8    2250    2199    2190    2196       8
    2250    2256    2208    2211       8    2253    2250    2199    2190       8
    2253    2250    2199    2202       8    2253    2250    2199    2205       7
    2253    2250   -2199    2205      35    2253    2250    2256    2208       8
    2253    2250    2268    2271       2    2256    2250    2199    2202       8
    2259    2256    2208    2205       7    2259    2256   -2208    2205      35
    2259    2256    2208    2211       8    2259    2256    2208    2214       8
    2259    2256    2250    2199       8    2259    2256    2250    2253       8
    2262    2256    2208    2211       8    2262    2256    2250    2253       7
    2262    2256   -2250    2253      35    2265    2262    2256    2208       7
    2265    2262   -2256    2208      36    2265    2262    2256    2250       7
    2265    2262   -2256    2250      36    2265    2262    2256    2259      39
    2268    2250    2199    2202       7    2268    2250   -2199    2202      35
    2268    2250    2256    2259       7    2268    2250   -2256    2259      35
    2286    2283    2280    2271       2    2289    2283    2280    2271       2
    2295    2292    2283    2280       7    2295    2292   -2283    2280      35
    2295    2292    2283    2286       8    2295    2292    2283    2289       8
    2298    2292    2283    2286       7    2298    2292   -2283    2286      35
    2298    2292    2283    2289       7    2298    2292   -2283    2289      35
    2301    2298    2292    2295       2    2304    2301    2298    2292       2
    2310    2307    2301    2304      18    2313    2310    2307    2301      62
    2319    2316    2310    2307      63    2319    2316    2310    2313      63
    2322    2316    2310    2313      63    2325    2322    2316    2319      23
    2328    2325    2322    2316      25    2331    2325    2322    2316      25
    2334    2322    2316    2319      23    2334    2322    2325    2328      25
    2334    2322    2325    2331      25    2337    2307    2301    2304      18
    2337    2307    2310    2313      62    2343    2292    2283    2286       8
    2343    2292    2283    2289       8    2343    2349    2301    2304       8
    2346    2343    2292    2283       8    2346    2343    2292    2295       8
    2346    2343    2292    2298       7    2346    2343   -2292    2298      35
    2346    2343    2349    2301       8    2346    2343    2361    2364       2
    2349    2343    2292    2295       8    2352    2349    2301    2298       7
    2352    2349   -2301    2298      35    2352    2349    2301    2304       8
    2352    2349    2301    2307       8    2352    2349    2343    2292       8
    2352    2349    2343    2346       8    2355    2349    2301    2304       8
    2355    2349    2343    2346       7    2355    2349   -2343    2346      35
    2358    2355    2349    2301       7    2358    2355   -2349    2301      36
    2358    2355    2349    2343       7    2358    2355   -2349    2343      36
    2358    2355    2349    2352      39    2361    2343    2292    2295       7
    2361    2343   -2292    2295      35    2361    2343    2349    2352       7
    2361    2343   -2349    2352      35    2379    2376    2373    2364       2
    2382    2376    2373    2364       2    2388    2385    2376    2373       7
    2388    2385   -2376    2373      35    2388    2385    2376    2379       8
    2388    2385    2376    2382       8    2391    2385    2376    2379       7
    2391    2385   -2376    2379      35    2391    2385    2376    2382       7
    2391    2385   -2376    2382      35    2394    2391    2385    2388       2
    2397    2394    2391    2385       2    2403    2400    2394    2397      18
    2406    2403    2400    2394      62    2412    2409    2403    2400      63
    2412    2409    2403    2406      63    2415    2409    2403    2406      63
    2418    2415    2409    2412      64    2421    2415    2409    2412      64
    2424    2421    2415    2409      56    2424    2421    2415    2418      56
    2424    2421    2427    2400      56    2427    2400    2394    2397      18
    2427    2400    2403    2406      62    2430    2427    2421    2424      56
    2433    2385    2376    2379       8    2433    2385    2376    2382       8
    2433    2439    2394    2397       8    2436    2433    2385    2376       8
    2436    2433    2385    2388       8    2436    2433    2385    2391       7
    2436    2433   -2385    2391      35    2436    2433    2439    2394       8
    2436    2433    2451    2454       2    2439    2433    2385    2388       8
    2442    2439    2394    2391       7    2442    2439   -2394    2391      35
    2442    2439    2394    2397       8    2442    2439    2394    2400       8
    2442    2439    2433    2385       8    2442    2439    2433    2436       8
    2445    2439    2394    2397       8    2445    2439    2433    2436       7
    2445    2439   -2433    2436      35    2448    2445    2439    2394       7
    2448    2445   -2439    2394      36    2448    2445    2439    2433       7
    2448    2445   -2439    2433      36    2448    2445    2439    2442      39
    2451    2433    2385    2388       7    2451    2433   -2385    2388      35
    2451    2433    2439    2442       7    2451    2433   -2439    2442      35
    2469    2466    2463    2454       2    2472    2466    2463    2454       2
    2478    2475    2466    2463       7    2478    2475   -2466    2463      35
    2478    2475    2466    2469       8    2478    2475    2466    2472       8
    2481    2475    2466    2469       7    2481    2475   -2466    2469      35
    2481    2475    2466    2472       7    2481    2475   -2466    2472      35
    2484    2481    2475    2478       2    2487    2484    2481    2475       2
    2493    2490    2484    2487      18    2496    2493    2490    2484      62
    2502    2499    2493    2490      63    2502    2499    2493    2496      63
    2505    2499    2493    2496      63    2508    2505    2499    2502      23
    2511    2508    2505    2499      25    2514    2508    2505    2499      25
    2517    2505    2499    2502      23    2517    2505    2508    2511      25
    2517    2505    2508    2514      25    2520    2490    2484    2487      18
    2520    2490    2493    2496      62    2526    2475    2466    2469       8
    2526    2475    2466    2472       8    2526    2532    2484    2487       8
    2529    2526    2475    2466       8    2529    2526    2475    2478       8
    2529    2526    2475    2481       7    2529    2526   -2475    2481      35
    2529    2526    2532    2484       8    2529    2526    2544    2547       2
    2532    2526    2475    2478       8    2535    2532    2484    2481       7
    2535    2532   -2484    2481      35    2535    2532    2484    2487       8
    2535    2532    2484    2490       8    2535    2532    2526    2475       8
    2535    2532    2526    2529       8    2538    2532    2484    2487       8
    2538    2532    2526    2529       7    2538    2532   -2526    2529      35
    2541    2538    2532    2484       7    2541    2538   -2532    2484      36
    2541    2538    2532    2526       7    2541    2538   -2532    2526      36
    2541    2538    2532    2535      39    2544    2526    2475    2478       7
    2544    2526   -2475    2478      35    2544    2526    2532    2535       7
    2544    2526   -2532    2535      35    2562    2559    2556    2547       2
    2565    2559    2556    2547       2    2571    2568    2559    2556       7
    2571    2568   -2559    2556      35    2571    2568    2559    2562       8
    2571    2568    2559    2565       8    2574    2568    2559    2562       7
    2574    2568   -2559    2562      35    2574    2568    2559    2565       7
    2574    2568   -2559    2565      35    2577    2574    2568    2571       2
    2580    2577    2574    2568       2    2586    2583    2577    2580      18
    2589    2586    2583    2577      62    2595    2592    2586    2583      63
    2595    2592    2586    2589      63    2598    2592    2586    2589      63
    2601    2598    2592    2595      64    2604    2598    2592    2595      64
    2607    2604    2598    2592      56    2607    2604    2598    2601      56
    2607    2604    2610    2583      56    2610    2583    2577    2580      18
    2610    2583    2586    2589      62    2613    2610    2604    2607      56
    2616    2568    2559    2562       8    2616    2568    2559    2565       8
    2616    2622    2577    2580       8    2619    2616    2568    2559       8
    2619    2616    2568    2571       8    2619    2616    2568    2574       7
    2619    2616   -2568    2574      35    2619    2616    2622    2577       8
    2619    2616    2634    2637       2    2622    2616    2568    2571       8
    2625    2622    2577    2574       7    2625    2622   -2577    2574      35
    2625    2622    2577    2580       8    2625    2622    2577    2583       8
    2625    2622    2616    2568       8    2625    2622    2616    2619       8
    2628    2622    2577    2580       8    2628    2622    2616    2619       7
    2628    2622   -2616    2619      35    2631    2628    2622    2577       7
    2631    2628   -2622    2577      36    2631    2628    2622    2616       7
    2631    2628   -2622    2616      36    2631    2628    2622    2625      39
    2634    2616    2568    2571       7    2634    2616   -2568    2571      35
    2634    2616    2622    2625       7    2634    2616   -2622    2625      35
    2652    2649    2646    2637       2    2655    2649    2646    2637       2
    2661    2658    2649    2646       7    2661    2658   -2649    2646      35
    2661    2658    2649    2652       8    2661    2658    2649    2655       8
    2664    2658    2649    2652       7    2664    2658   -2649    2652      35
    2664    2658    2649    2655       7    2664    2658   -2649    2655      35
    2667    2664    2658    2661       2    2670    2667    2664    2658       2
    2676    2673    2667    2670      18    2679    2676    2673    2667      62
    2685    2682    2676    2673      63    2685    2682    2676    2679      63
    2688    2682    2676    2679      63    2691    2688    2682    2685      23
    2694    2691    2688    2682      25    2697    2691    2688    2682      25
    2700    2688    2682    2685      23    2700    2688    2691    2694      25
    2700    2688    2691    2697      25    2703    2673    2667    2670      18
    2703    2673    2676    2679      62    2709    2658    2649    2652       8
    2709    2658    2649    2655       8    2709    2715    2667    2670       8
    2712    2709    2658    2649       8    2712    2709    2658    2661       8
    2712    2709    2658    2664       7    2712    2709   -2658    2664      35
    2712    2709    2715    2667       8    2712    2709    2727    2730       2
    2715    2709    2658    2661       8    2718    2715    2667    2664       7
    2718    2715   -2667    2664      35    2718    2715    2667    2670       8
    2718    2715    2667    2673       8    2718    2715    2709    2658       8
    2718    2715    2709    2712       8    2721    2715    2667    2670       8
    2721    2715    2709    2712       7    2721    2715   -2709    2712      35
    2724    2721    2715    2667       7    2724    2721   -2715    2667      36
    2724    2721    2715    2709       7    2724    2721   -2715    2709      36
    2724    2721    2715    2718      39    2727    2709    2658    2661       7
    2727    2709   -2658    2661      35    2727    2709    2715    2718       7
    2727    2709   -2715    2718      35    2745    2742    2739    2730       2
    2748    2742    2739    2730       2    2754    2751    2742    2739       7
    2754    2751   -2742    2739      35    2754    2751    2742    2745       8
    2754    2751    2742    2748       8    2757    2751    2742    2745       7
    2757    2751   -2742    2745      35    2757    2751    2742    2748       7
    2757    2751   -2742    2748      35    2760    2757    2751    2754       2
    2763    2760    2757    2751       2    2769    2766    2760    2763      18
    2772    2769    2766    2760      62    2778    2775    2769    2766      63
    2778    2775    2769    2772      63    2781    2775    2769    2772      63
    2784    2781    2775    2778      23    2787    2784    2781    2775      25
    2790    2784    2781    2775      25    2793    2781    2775    2778      23
    2793    2781    2784    2787      25    2793    2781    2784    2790      25
    2796    2766    2760    2763      18    2796    2766    2769    2772      62
    2802    2751    2742    2745       8    2802    2751    2742    2748       8
    2802    2808    2760    2763       8    2805    2802    2751    2742       8
    2805    2802    2751    2754       8    2805    2802    2751    2757       7
    2805    2802   -2751    2757      35    2805    2802    2808    2760       8
    2808    2802    2751    2754       8    2811    2808    2760    2757       7
    2811    2808   -2760    2757      35    2811    2808    2760    2763       8
    2811    2808    2760    2766       8    2811    2808    2802    2751       8
    2811    2808    2802    2805       8    2814    2808    2760    2763       8
    2814    2808    2802    2805       7    2814    2808   -2802    2805      35
    2817    2814    2808    2760       7    2817    2814   -2808    2760      36
    2817    2814    2808    2802       7    2817    2814   -2808    2802      36
    2817    2814    2808    2811      39    2820    2802    2751    2754       7
    2820    2802   -2751    2754      35    2820    2802    2808    2811       7
    2820    2802   -2808    2811      35    2823    2820    2802    2751       7
    2823    2820   -2802    2751      36    2823    2820    2802    2805      39
    2823    2820    2802    2808       7    2823    2820   -2802    2808      36
    1368    1374   -1371   -1377      79    1368    1374   -1371   -1380      79
    1380    1377   -1371   -1368      79    1374    1377   -1371   -1380      79
    1395    1404   -1398   -1401      81    1410    1416   -1413   -1419      80
    1422    1431   -1425   -1428      81    1278    1281   -1275   -1272      79
    1284    1278   -1275   -1272      79    1284    1281   -1275   -1272      79
    1284    1278   -1275   -1281      79    1299    1308   -1302   -1305      81
    1314    1320   -1317   -1323      80    1326    1335   -1329   -1332      81
    1182    1185   -1179   -1176      79    1188    1182   -1179   -1176      79
    1188    1185   -1179   -1176      79    1188    1182   -1179   -1185      79
    1203    1212   -1206   -1209      81    1218    1224   -1221   -1227      80
    1230    1239   -1233   -1236      81    1083    1086   -1080   -1077      79
    1089    1083   -1080   -1077      79    1089    1086   -1080   -1077      79
    1089    1083   -1080   -1086      79    1104    1113   -1107   -1110      81
    1119    1131   -1125   -1128      80    1131    1137   -1134   -1140      80
     987     990    -984    -981      79     993     987    -984    -981      79
     993     990    -984    -981      79     993     987    -984    -990      79
    1008    1017   -1011   -1014      81    1023    1029   -1026   -1032      80
    1035    1044   -1038   -1041      81     888     891    -885    -882      79
     894     888    -885    -882      79     894     891    -885    -882      79
     894     888    -885    -891      79     909     918    -912    -915      81
     924     936    -930    -933      80     936     942    -939    -945      80
     792     795    -789    -786      79     798     792    -789    -786      79
     798     795    -789    -786      79     798     792    -789    -795      79
     813     822    -816    -819      81     828     834    -831    -837      80
     840     849    -843    -846      81     696     699    -693    -690      79
     702     696    -693    -690      79     702     699    -693    -690      79
     702     696    -693    -699      79     717     726    -720    -723      81
     732     738    -735    -741      80     744     753    -747    -750      81
     597     600    -594    -591      79     603     597    -594    -591      79
     603     600    -594    -591      79     603     597    -594    -600      79
     618     627    -621    -624      81     633     645    -639    -642      80
     645     651    -648    -654      80     498     501    -495    -492      79
     504     498    -495    -492      79     504     501    -495    -492      79
     504     498    -495    -501      79     519     528    -522    -525      81
     534     546    -540    -543      80     546     552    -549    -555      80
     402     405    -399    -396      79     408     402    -399    -396      79
     408     405    -399    -396      79     408     402    -399    -405      79
     423     432    -426    -429      81     438     444    -441    -447      80
     450     459    -453    -456      81     303     306    -300    -297      79
     309     303    -300    -297      79     309     306    -300    -297      79
     309     303    -300    -306      79     324     333    -327    -330      81
     339     351    -345    -348      80     351     357    -354    -360      80
     207     210    -204    -201      79     213     207    -204    -201      79
     213     210    -204    -201      79     213     207    -204    -210      79
     228     237    -231    -234      81     243     249    -246    -252      80
     255     264    -258    -261      81     108     111    -105    -102      79
     114     108    -105    -102      79     114     111    -105    -102      79
     114     108    -105    -111      79     129     138    -132    -135      81
     144     156    -150    -153      80     156     162    -159    -165      80
       3       9      -6     -12      79       3       9      -6     -15      79
      15      12      -6      -3      79      15       9      -6     -12      79
      30      39     -33     -36      81      45      57     -51     -54      80
      57      63     -60     -66      80    1488    1497   -1491   -1494      81
    1491    1503   -1497   -1500      81    1503    1515   -1509   -1512      80
    1578    1587   -1581   -1584      81    1581    1593   -1587   -1590      81
    1593    1605   -1599   -1602      80    1668    1677   -1671   -1674      81
    1671    1683   -1677   -1680      81    1683    1695   -1689   -1692      80
    1758    1767   -1761   -1764      81    1761    1773   -1767   -1770      81
    1773    1779   -1776   -1782      80    1851    1860   -1854   -1857      81
    1854    1866   -1860   -1863      81    1866    1878   -1872   -1875      80
    1941    1950   -1944   -1947      81    1944    1956   -1950   -1953      81
    1956    1962   -1959   -1965      80    2034    2043   -2037   -2040      81
    2037    2049   -2043   -2046      81    2049    2061   -2055   -2058      80
    2124    2133   -2127   -2130      81    2127    2139   -2133   -2136      81
    2139    2151   -2145   -2148      80    2214    2223   -2217   -2220      81
    2217    2229   -2223   -2226      81    2229    2235   -2232   -2238      80
    2307    2316   -2310   -2313      81    2310    2322   -2316   -2319      81
    2322    2328   -2325   -2331      80    2400    2409   -2403   -2406      81
    2403    2415   -2409   -2412      81    2415    2427   -2421   -2424      80
    2490    2499   -2493   -2496      81    2493    2505   -2499   -2502      81
    2505    2511   -2508   -2514      80    2583    2592   -2586   -2589      81
    2586    2598   -2592   -2595      81    2598    2610   -2604   -2607      80
    2673    2682   -2676   -2679      81    2676    2688   -2682   -2685      81
    2688    2694   -2691   -2697      80    2766    2775   -2769   -2772      81
    2769    2781   -2775   -2778      81    2781    2787   -2784   -2790      80
%FLAG DIHEDRALS_WITHOUT_HYDROGEN                                                
%FORMAT(10I8)                                                                   
    1371    1368    1359    1362       1    1371    1368    1359    1365       1
    1380    1371    1368    1359       3    1380    1371   -1368    1359       4
    1380    1371   -1368    1359       5    1380    1371   -1368    1359       6
    1386    1380    1371    1368       8    1389    1386    1380    1371       9
    1389    1386   -1380    1371      10    1389    1443   -1437    1380      11
    1389    1443   -1437    1380      12    1389    1443   -1437    1380      13
    1395    1389    1386    1380      14    1395    1389   -1386    1380      10
    1398    1395    1389    1386      15    1398    1395   -1389    1386      16
    1398    1395   -1389    1386      17    1404    1398    1395    1389      19
    1404    1407   -1434    1395      20    1407    1404   -1398    1395      21
    1407    1434    1395    1389      22    1407    1434   -1395    1398      22
    1410    1407    1404    1398      23    1410    1407    1434    1395      20
    1413    1410    1407    1404      24    1422    1410    1407    1404      24
    1425    1422    1410    1407      26    1425    1422    1410    1413      26
    1425    1431    1434    1395      27    1425    1431   -1434    1407      27
    1431    1425    1422    1410      28    1431    1434    1395    1389      22
    1431    1434    1395    1398      22    1431    1434    1407    1404      20
    1431    1434   -1407    1410      20    1434    1395    1389    1386      18
    1434    1395   -1398    1404      19    1434    1407   -1404    1398      23
    1434    1407    1410    1413      24    1434    1407    1410    1422      24
    1434    1431   -1425    1422      28    1437    1380    1371    1368      29
    1437    1380   -1371    1368      30    1437    1380   -1371    1368      31
    1437    1380   -1371    1368      32    1437    1380   -1371    1368      33
    1437    1380   -1371    1368      34    1437    1380   -1386    1389       9
    1437    1380   -1386    1389      10    1437    1443   -1389    1386       8
    1437    1443    1389    1395       8    1443    1389   -1386    1380       9
    1443    1389   -1386    1380      10    1443    1389    1395    1398      18
    1443    1389    1395    1434      18    1443    1437    1380    1371      11
    1443    1437   -1380    1371      12    1443    1437   -1380    1371      13
    1443    1437   -1380    1386       8    1452    1437    1380    1371       8
    1452    1437    1380    1386      37    1452    1437   -1380    1386      38
    1452    1437    1443    1389       8    1275    1272    1263    1266       1
    1275    1272    1263    1269       1    1284    1275    1272    1263       3
    1284    1275   -1272    1263       4    1284    1275   -1272    1263       5
    1284    1275   -1272    1263       6    1284    1341    1356    1359      40
    1284    1341   -1356    1359      41    1284    1341   -1356    1359      42
    1290    1284    1275    1272       8    1293    1290    1284    1275       9
    1293    1290   -1284    1275      10    1293    1347   -1341    1284      11
    1293    1347   -1341    1284      12    1293    1347   -1341    1284      13
    1299    1293    1290    1284      14    1299    1293   -1290    1284      10
    1302    1299    1293    1290      15    1302    1299   -1293    1290      16
    1302    1299   -1293    1290      17    1308    1302    1299    1293      19
    1308    1311   -1338    1299      20    1311    1308   -1302    1299      21
    1311    1338    1299    1293      22    1311    1338   -1299    1302      22
    1314    1311    1308    1302      23    1314    1311    1338    1299      20
    1317    1314    1311    1308      24    1326    1314    1311    1308      24
    1329    1326    1314    1311      26    1329    1326    1314    1317      26
    1329    1335    1338    1299      27    1329    1335   -1338    1311      27
    1335    1329    1326    1314      28    1335    1338    1299    1293      22
    1335    1338    1299    1302      22    1335    1338    1311    1308      20
    1335    1338   -1311    1314      20    1338    1299    1293    1290      18
    1338    1299   -1302    1308      19    1338    1311   -1308    1302      23
    1338    1311    1314    1317      24    1338    1311    1314    1326      24
    1338    1335   -1329    1326      28    1341    1284    1275    1272      29
    1341    1284   -1275    1272      30    1341    1284   -1275    1272      31
    1341    1284   -1275    1272      32    1341    1284   -1275    1272      33
    1341    1284   -1275    1272      34    1341    1284   -1290    1293       9
    1341    1284   -1290    1293      10    1341    1347   -1293    1290       8
    1341    1347    1293    1299       8    1341    1356    1359    1362      43
    1341    1356    1359    1365      43    1341    1356    1359    1368      44
    1341    1356   -1359    1368      45    1341    1356   -1359    1368      43
    1347    1293   -1290    1284       9    1347    1293   -1290    1284      10
    1347    1293    1299    1302      18    1347    1293    1299    1338      18
    1347    1341    1284    1275      11    1347    1341   -1284    1275      12
    1347    1341   -1284    1275      13    1347    1341   -1284    1290       8
    1347    1341    1356    1359      40    1347    1341   -1356    1359      41
    1347    1341   -1356    1359      42    1356    1341    1284    1275       8
    1356    1341    1284    1290      37    1356    1341   -1284    1290      38
    1356    1341    1347    1293       8    1356    1359    1368    1371      46
    1356    1359   -1368    1371      47    1356    1359   -1368    1371      48
    1356    1359   -1368    1371      49    1356    1359   -1368    1371      50
    1356    1359   -1368    1371      51    1179    1176    1167    1170       1
    1179    1176    1167    1173       1    1188    1179    1176    1167       3
    1188    1179   -1176    1167       4    1188    1179   -1176    1167       5
    1188    1179   -1176    1167       6    1188    1245    1260    1263      40
    1188    1245   -1260    1263      41    1188    1245   -1260    1263      42
    1194    1188    1179    1176       8    1197    1194    1188    1179       9
    1197    1194   -1188    1179      10    1197    1251   -1245    1188      11
    1197    1251   -1245    1188      12    1197    1251   -1245    1188      13
    1203    1197    1194    1188      14    1203    1197   -1194    1188      10
    1206    1203    1197    1194      15    1206    1203   -1197    1194      16
    1206    1203   -1197    1194      17    1212    1206    1203    1197      19
    1212    1215   -1242    1203      20    1215    1212   -1206    1203      21
    1215    1242    1203    1197      22    1215    1242   -1203    1206      22
    1218    1215    1212    1206      23    1218    1215    1242    1203      20
    1221    1218    1215    1212      24    1230    1218    1215    1212      24
    1233    1230    1218    1215      26    1233    1230    1218    1221      26
    1233    1239    1242    1203      27    1233    1239   -1242    1215      27
    1239    1233    1230    1218      28    1239    1242    1203    1197      22
    1239    1242    1203    1206      22    1239    1242    1215    1212      20
    1239    1242   -1215    1218      20    1242    1203    1197    1194      18
    1242    1203   -1206    1212      19    1242    1215   -1212    1206      23
    1242    1215    1218    1221      24    1242    1215    1218    1230      24
    1242    1239   -1233    1230      28    1245    1188    1179    1176      29
    1245    1188   -1179    1176      30    1245    1188   -1179    1176      31
    1245    1188   -1179    1176      32    1245    1188   -1179    1176      33
    1245    1188   -1179    1176      34    1245    1188   -1194    1197       9
    1245    1188   -1194    1197      10    1245    1251   -1197    1194       8
    1245    1251    1197    1203       8    1245    1260    1263    1266      43
    1245    1260    1263    1269      43    1245    1260    1263    1272      44
    1245    1260   -1263    1272      45    1245    1260   -1263    1272      43
    1251    1197   -1194    1188       9    1251    1197   -1194    1188      10
    1251    1197    1203    1206      18    1251    1197    1203    1242      18
    1251    1245    1188    1179      11    1251    1245   -1188    1179      12
    1251    1245   -1188    1179      13    1251    1245   -1188    1194       8
    1251    1245    1260    1263      40    1251    1245   -1260    1263      41
    1251    1245   -1260    1263      42    1260    1245    1188    1179       8
    1260    1245    1188    1194      37    1260    1245   -1188    1194      38
    1260    1245    1251    1197       8    1260    1263    1272    1275      46
    1260    1263   -1272    1275      47    1260    1263   -1272    1275      48
    1260    1263   -1272    1275      49    1260    1263   -1272    1275      50
    1260    1263   -1272    1275      51    1080    1077    1068    1071       1
    1080    1077    1068    1074       1    1089    1080    1077    1068       3
    1089    1080   -1077    1068       4    1089    1080   -1077    1068       5
    1089    1080   -1077    1068       6    1089    1149    1164    1167      40
    1089    1149   -1164    1167      41    1089    1149   -1164    1167      42
    1095    1089    1080    1077       8    1098    1095    1089    1080       9
    1098    1095   -1089    1080      10    1098    1155   -1149    1089      11
    1098    1155   -1149    1089      12    1098    1155   -1149    1089      13
    1104    1098    1095    1089      14    1104    1098   -1095    1089      10
    1107    1104    1098    1095      52    1107    1104   -1098    1095      53
    1107    1104   -1098    1095      54    1113    1107    1104    1098      19
    1113    1116   -1146    1104      20    1116    1113   -1107    1104      21
    1116    1146    1104    1098      22    1116    1146   -1104    1107      22
    1119    1116    1113    1107      23    1119    1116    1146    1104      20
    1122    1119    1116    1113      55    1125    1119    1116    1113      55
    1131    1125    1119    1116      56    1131    1125    1119    1122      56
    1131    1143    1146    1104      27    1131    1143   -1146    1116      27
    1134    1131    1125    1119      57    1143    1131    1125    1119      57
    1143    1146    1104    1098      22    1143    1146    1104    1107      22
    1143    1146    1116    1113      20    1143    1146   -1116    1119      20
    1146    1104    1098    1095      18    1146    1104   -1107    1113      19
    1146    1116   -1113    1107      23    1146    1116    1119    1122      55
    1146    1116    1119    1125      55    1146    1143   -1131    1125      26
    1146    1143    1131    1134      26    1149    1089    1080    1077      29
    1149    1089   -1080    1077      30    1149    1089   -1080    1077      31
    1149    1089   -1080    1077      32    1149    1089   -1080    1077      33
    1149    1089   -1080    1077      34    1149    1089   -1095    1098       9
    1149    1089   -1095    1098      10    1149    1155   -1098    1095       8
    1149    1155    1098    1104       8    1149    1164    1167    1170      43
    1149    1164    1167    1173      43    1149    1164    1167    1176      44
    1149    1164   -1167    1176      45    1149    1164   -1167    1176      43
    1155    1098   -1095    1089       9    1155    1098   -1095    1089      10
    1155    1098    1104    1107      18    1155    1098    1104    1146      18
    1155    1149    1089    1080      11    1155    1149   -1089    1080      12
    1155    1149   -1089    1080      13    1155    1149   -1089    1095       8
    1155    1149    1164    1167      40    1155    1149   -1164    1167      41
    1155    1149   -1164    1167      42    1164    1149    1089    1080       8
    1164    1149    1089    1095      37    1164    1149   -1089    1095      38
    1164    1149    1155    1098       8    1164    1167    1176    1179      46
    1164    1167   -1176    1179      47    1164    1167   -1176    1179      48
    1164    1167   -1176    1179      49    1164    1167   -1176    1179      50
    1164    1167   -1176    1179      51     984     981     972     975       1
     984     981     972     978       1     993     984     981     972       3
     993     984    -981     972       4     993     984    -981     972       5
     993     984    -981     972       6     993    1050    1065    1068      40
     993    1050   -1065    1068      41     993    1050   -1065    1068      42
     999     993     984     981       8    1002     999     993     984       9
    1002     999    -993     984      10    1002    1056   -1050     993      11
    1002    1056   -1050     993      12    1002    1056   -1050     993      13
    1008    1002     999     993      14    1008    1002    -999     993      10
    1011    1008    1002     999      15    1011    1008   -1002     999      16
    1011    1008   -1002     999      17    1017    1011    1008    1002      19
    1017    1020   -1047    1008      20    1020    1017   -1011    1008      21
    1020    1047    1008    1002      22    1020    1047   -1008    1011      22
    1023    1020    1017    1011      23    1023    1020    1047    1008      20
    1026    1023    1020    1017      24    1035    1023    1020    1017      24
    1038    1035    1023    1020      26    1038    1035    1023    1026      26
    1038    1044    1047    1008      27    1038    1044   -1047    1020      27
    1044    1038    1035    1023      28    1044    1047    1008    1002      22
    1044    1047    1008    1011      22    1044    1047    1020    1017      20
    1044    1047   -1020    1023      20    1047    1008    1002     999      18
    1047    1008   -1011    1017      19    1047    1020   -1017    1011      23
    1047    1020    1023    1026      24    1047    1020    1023    1035      24
    1047    1044   -1038    1035      28    1050     993     984     981      29
    1050     993    -984     981      30    1050     993    -984     981      31
    1050     993    -984     981      32    1050     993    -984     981      33
    1050     993    -984     981      34    1050     993    -999    1002       9
    1050     993    -999    1002      10    1050    1056   -1002     999       8
    1050    1056    1002    1008       8    1050    1065    1068    1071      43
    1050    1065    1068    1074      43    1050    1065    1068    1077      44
    1050    1065   -1068    1077      45    1050    1065   -1068    1077      43
    1056    1002    -999     993       9    1056    1002    -999     993      10
    1056    1002    1008    1011      18    1056    1002    1008    1047      18
    1056    1050     993     984      11    1056    1050    -993     984      12
    1056    1050    -993     984      13    1056    1050    -993     999       8
    1056    1050    1065    1068      40    1056    1050   -1065    1068      41
    1056    1050   -1065    1068      42    1065    1050     993     984       8
    1065    1050     993     999      37    1065    1050    -993     999      38
    1065    1050    1056    1002       8    1065    1068    1077    1080      46
    1065    1068   -1077    1080      47    1065    1068   -1077    1080      48
    1065    1068   -1077    1080      49    1065    1068   -1077    1080      50
    1065    1068   -1077    1080      51     885     882     873     876       1
     885     882     873     879       1     894     885     882     873       3
     894     885    -882     873       4     894     885    -882     873       5
     894     885    -882     873       6     894     954     969     972      40
     894     954    -969     972      41     894     954    -969     972      42
     900     894     885     882       8     903     900     894     885       9
     903     900    -894     885      10     903     960    -954     894      11
     903     960    -954     894      12     903     960    -954     894      13
     909     903     900     894      14     909     903    -900     894      10
     912     909     903     900      52     912     909    -903     900      53
     912     909    -903     900      54     918     912     909     903      19
     918     921    -951     909      20     921     918    -912     909      21
     921     951     909     903      22     921     951    -909     912      22
     924     921     918     912      23     924     921     951     909      20
     927     924     921     918      55     930     924     921     918      55
     936     930     924     921      56     936     930     924     927      56
     936     948     951     909      27     936     948    -951     921      27
     939     936     930     924      57     948     936     930     924      57
     948     951     909     903      22     948     951     909     912      22
     948     951     921     918      20     948     951    -921     924      20
     951     909     903     900      18     951     909    -912     918      19
     951     921    -918     912      23     951     921     924     927      55
     951     921     924     930      55     951     948    -936     930      26
     951     948     936     939      26     954     894     885     882      29
     954     894    -885     882      30     954     894    -885     882      31
     954     894    -885     882      32     954     894    -885     882      33
     954     894    -885     882      34     954     894    -900     903       9
     954     894    -900     903      10     954     960    -903     900       8
     954     960     903     909       8     954     969     972     975      43
     954     969     972     978      43     954     969     972     981      44
     954     969    -972     981      45     954     969    -972     981      43
     960     903    -900     894       9     960     903    -900     894      10
     960     903     909     912      18     960     903     909     951      18
     960     954     894     885      11     960     954    -894     885      12
     960     954    -894     885      13     960     954    -894     900       8
     960     954     969     972      40     960     954    -969     972      41
     960     954    -969     972      42     969     954     894     885       8
     969     954     894     900      37     969     954    -894     900      38
     969     954     960     903       8     969     972     981     984      46
     969     972    -981     984      47     969     972    -981     984      48
     969     972    -981     984      49     969     972    -981     984      50
     969     972    -981     984      51     789     786     777     780       1
     789     786     777     783       1     798     789     786     777       3
     798     789    -786     777       4     798     789    -786     777       5
     798     789    -786     777       6     798     855     870     873      40
     798     855    -870     873      41     798     855    -870     873      42
     804     798     789     786       8     807     804     798     789       9
     807     804    -798     789      10     807     861    -855     798      11
     807     861    -855     798      12     807     861    -855     798      13
     813     807     804     798      14     813     807    -804     798      10
     816     813     807     804      15     816     813    -807     804      16
     816     813    -807     804      17     822     816     813     807      19
     822     825    -852     813      20     825     822    -816     813      21
     825     852     813     807      22     825     852    -813     816      22
     828     825     822     816      23     828     825     852     813      20
     831     828     825     822      24     840     828     825     822      24
     843     840     828     825      26     843     840     828     831      26
     843     849     852     813      27     843     849    -852     825      27
     849     843     840     828      28     849     852     813     807      22
     849     852     813     816      22     849     852     825     822      20
     849     852    -825     828      20     852     813     807     804      18
     852     813    -816     822      19     852     825    -822     816      23
     852     825     828     831      24     852     825     828     840      24
     852     849    -843     840      28     855     798     789     786      29
     855     798    -789     786      30     855     798    -789     786      31
     855     798    -789     786      32     855     798    -789     786      33
     855     798    -789     786      34     855     798    -804     807       9
     855     798    -804     807      10     855     861    -807     804       8
     855     861     807     813       8     855     870     873     876      43
     855     870     873     879      43     855     870     873     882      44
     855     870    -873     882      45     855     870    -873     882      43
     861     807    -804     798       9     861     807    -804     798      10
     861     807     813     816      18     861     807     813     852      18
     861     855     798     789      11     861     855    -798     789      12
     861     855    -798     789      13     861     855    -798     804       8
     861     855     870     873      40     861     855    -870     873      41
     861     855    -870     873      42     870     855     798     789       8
     870     855     798     804      37     870     855    -798     804      38
     870     855     861     807       8     870     873     882     885      46
     870     873    -882     885      47     870     873    -882     885      48
     870     873    -882     885      49     870     873    -882     885      50
     870     873    -882     885      51     693     690     681     684       1
     693     690     681     687       1     702     693     690     681       3
     702     693    -690     681       4     702     693    -690     681       5
     702     693    -690     681       6     702     759     774     777      40
     702     759    -774     777      41     702     759    -774     777      42
     708     702     693     690       8     711     708     702     693       9
     711     708    -702     693      10     711     765    -759     702      11
     711     765    -759     702      12     711     765    -759     702      13
     717     711     708     702      14     717     711    -708     702      10
     720     717     711     708      15     720     717    -711     708      16
     720     717    -711     708      17     726     720     717     711      19
     726     729    -756     717      20     729     726    -720     717      21
     729     756     717     711      22     729     756    -717     720      22
     732     729     726     720      23     732     729     756     717      20
     735     732     729     726      24     744     732     729     726      24
     747     744     732     729      26     747     744     732     735      26
     747     753     756     717      27     747     753    -756     729      27
     753     747     744     732      28     753     756     717     711      22
     753     756     717     720      22     753     756     729     726      20
     753     756    -729     732      20     756     717     711     708      18
     756     717    -720     726      19     756     729    -726     720      23
     756     729     732     735      24     756     729     732     744      24
     756     753    -747     744      28     759     702     693     690      29
     759     702    -693     690      30     759     702    -693     690      31
     759     702    -693     690      32     759     702    -693     690      33
     759     702    -693     690      34     759     702    -708     711       9
     759     702    -708     711      10     759     765    -711     708       8
     759     765     711     717       8     759     774     777     780      43
     759     774     777     783      43     759     774     777     786      44
     759     774    -777     786      45     759     774    -777     786      43
     765     711    -708     702       9     765     711    -708     702      10
     765     711     717     720      18     765     711     717     756      18
     765     759     702     693      11     765     759    -702     693      12
     765     759    -702     693      13     765     759    -702     708       8
     765     759     774     777      40     765     759    -774     777      41
     765     759    -774     777      42     774     759     702     693       8
     774     759     702     708      37     774     759    -702     708      38
     774     759     765     711       8     774     777     786     789      46
     774     777    -786     789      47     774     777    -786     789      48
     774     777    -786     789      49     774     777    -786     789      50
     774     777    -786     789      51     594     591     582     585       1
     594     591     582     588       1     603     594     591     582       3
     603     594    -591     582       4     603     594    -591     582       5
     603     594    -591     582       6     603     663     678     681      40
     603     663    -678     681      41     603     663    -678     681      42
     609     603     594     591       8     612     609     603     594       9
     612     609    -603     594      10     612     669    -663     603      11
     612     669    -663     603      12     612     669    -663     603      13
     618     612     609     603      14     618     612    -609     603      10
     621     618     612     609      52     621     618    -612     609      53
     621     618    -612     609      54     627     621     618     612      19
     627     630    -660     618      20     630     627    -621     618      21
     630     660     618     612      22     630     660    -618     621      22
     633     630     627     621      23     633     630     660     618      20
     636     633     630     627      55     639     633     630     627      55
     645     639     633     630      56     645     639     633     636      56
     645     657     660     618      27     645     657    -660     630      27
     648     645     639     633      57     657     645     639     633      57
     657     660     618     612      22     657     660     618     621      22
     657     660     630     627      20     657     660    -630     633      20
     660     618     612     609      18     660     618    -621     627      19
     660     630    -627     621      23     660     630     633     636      55
     660     630     633     639      55     660     657    -645     639      26
     660     657     645     648      26     663     603     594     591      29
     663     603    -594     591      30     663     603    -594     591      31
     663     603    -594     591      32     663     603    -594     591      33
     663     603    -594     591      34     663     603    -609     612       9
     663     603    -609     612      10     663     669    -612     609       8
     663     669     612     618       8     663     678     681     684      43
     663     678     681     687      43     663     678     681     690      44
     663     678    -681     690      45     663     678    -681     690      43
     669     612    -609     603       9     669     612    -609     603      10
     669     612     618     621      18     669     612     618     660      18
     669     663     603     594      11     669     663    -603     594      12
     669     663    -603     594      13     669     663    -603     609       8
     669     663     678     681      40     669     663    -678     681      41
     669     663    -678     681      42     678     663     603     594       8
     678     663     603     609      37     678     663    -603     609      38
     678     663     669     612       8     678     681     690     693      46
     678     681    -690     693      47     678     681    -690     693      48
     678     681    -690     693      49     678     681    -690     693      50
     678     681    -690     693      51     495     492     483     486       1
     495     492     483     489       1     504     495     492     483       3
     504     495    -492     483       4     504     495    -492     483       5
     504     495    -492     483       6     504     564     579     582      40
     504     564    -579     582      41     504     564    -579     582      42
     510     504     495     492       8     513     510     504     495       9
     513     510    -504     495      10     513     570    -564     504      11
     513     570    -564     504      12     513     570    -564     504      13
     519     513     510     504      14     519     513    -510     504      10
     522     519     513     510      52     522     519    -513     510      53
     522     519    -513     510      54     528     522     519     513      19
     528     531    -561     519      20     531     528    -522     519      21
     531     561     519     513      22     531     561    -519     522      22
     534     531     528     522      23     534     531     561     519      20
     537     534     531     528      55     540     534     531     528      55
     546     540     534     531      56     546     540     534     537      56
     546     558     561     519      27     546     558    -561     531      27
     549     546     540     534      57     558     546     540     534      57
     558     561     519     513      22     558     561     519     522      22
     558     561     531     528      20     558     561    -531     534      20
     561     519     513     510      18     561     519    -522     528      19
     561     531    -528     522      23     561     531     534     537      55
     561     531     534     540      55     561     558    -546     540      26
     561     558     546     549      26     564     504     495     492      29
     564     504    -495     492      30     564     504    -495     492      31
     564     504    -495     492      32     564     504    -495     492      33
     564     504    -495     492      34     564     504    -510     513       9
     564     504    -510     513      10     564     570    -513     510       8
     564     570     513     519       8     564     579     582     585      43
     564     579     582     588      43     564     579     582     591      44
     564     579    -582     591      45     564     579    -582     591      43
     570     513    -510     504       9     570     513    -510     504      10
     570     513     519     522      18     570     513     519     561      18
     570     564     504     495      11     570     564    -504     495      12
     570     564    -504     495      13     570     564    -504     510       8
     570     564     579     582      40     570     564    -579     582      41
     570     564    -579     582      42     579     564     504     495       8
     579     564     504     510      37     579     564    -504     510      38
     579     564     570     513       8     579     582     591     594      46
     579     582    -591     594      47     579     582    -591     594      48
     579     582    -591     594      49     579     582    -591     594      50
     579     582    -591     594      51     399     396     387     390       1
     399     396     387     393       1     408     399     396     387       3
     408     399    -396     387       4     408     399    -396     387       5
     408     399    -396     387       6     408     465     480     483      40
     408     465    -480     483      41     408     465    -480     483      42
     414     408     399     396       8     417     414     408     399       9
     417     414    -408     399      10     417     471    -465     408      11
     417     471    -465     408      12     417     471    -465     408      13
     423     417     414     408      14     423     417    -414     408      10
     426     423     417     414      15     426     423    -417     414      16
     426     423    -417     414      17     432     426     423     417      19
     432     435    -462     423      20     435     432    -426     423      21
     435     462     423     417      22     435     462    -423     426      22
     438     435     432     426      23     438     435     462     423      20
     441     438     435     432      24     450     438     435     432      24
     453     450     438     435      26     453     450     438     441      26
     453     459     462     423      27     453     459    -462     435      27
     459     453     450     438      28     459     462     423     417      22
     459     462     423     426      22     459     462     435     432      20
     459     462    -435     438      20     462     423     417     414      18
     462     423    -426     432      19     462     435    -432     426      23
     462     435     438     441      24     462     435     438     450      24
     462     459    -453     450      28     465     408     399     396      29
     465     408    -399     396      30     465     408    -399     396      31
     465     408    -399     396      32     465     408    -399     396      33
     465     408    -399     396      34     465     408    -414     417       9
     465     408    -414     417      10     465     471    -417     414       8
     465     471     417     423       8     465     480     483     486      43
     465     480     483     489      43     465     480     483     492      44
     465     480    -483     492      45     465     480    -483     492      43
     471     417    -414     408       9     471     417    -414     408      10
     471     417     423     426      18     471     417     423     462      18
     471     465     408     399      11     471     465    -408     399      12
     471     465    -408     399      13     471     465    -408     414       8
     471     465     480     483      40     471     465    -480     483      41
     471     465    -480     483      42     480     465     408     399       8
     480     465     408     414      37     480     465    -408     414      38
     480     465     471     417       8     480     483     492     495      46
     480     483    -492     495      47     480     483    -492     495      48
     480     483    -492     495      49     480     483    -492     495      50
     480     483    -492     495      51     300     297     288     291       1
     300     297     288     294       1     309     300     297     288       3
     309     300    -297     288       4     309     300    -297     288       5
     309     300    -297     288       6     309     369     384     387      40
     309     369    -384     387      41     309     369    -384     387      42
     315     309     300     297       8     318     315     309     300       9
     318     315    -309     300      10     318     375    -369     309      11
     318     375    -369     309      12     318     375    -369     309      13
     324     318     315     309      14     324     318    -315     309      10
     327     324     318     315      52     327     324    -318     315      53
     327     324    -318     315      54     333     327     324     318      19
     333     336    -366     324      20     336     333    -327     324      21
     336     366     324     318      22     336     366    -324     327      22
     339     336     333     327      23     339     336     366     324      20
     342     339     336     333      55     345     339     336     333      55
     351     345     339     336      56     351     345     339     342      56
     351     363     366     324      27     351     363    -366     336      27
     354     351     345     339      57     363     351     345     339      57
     363     366     324     318      22     363     366     324     327      22
     363     366     336     333      20     363     366    -336     339      20
     366     324     318     315      18     366     324    -327     333      19
     366     336    -333     327      23     366     336     339     342      55
     366     336     339     345      55     366     363    -351     345      26
     366     363     351     354      26     369     309     300     297      29
     369     309    -300     297      30     369     309    -300     297      31
     369     309    -300     297      32     369     309    -300     297      33
     369     309    -300     297      34     369     309    -315     318       9
     369     309    -315     318      10     369     375    -318     315       8
     369     375     318     324       8     369     384     387     390      43
     369     384     387     393      43     369     384     387     396      44
     369     384    -387     396      45     369     384    -387     396      43
     375     318    -315     309       9     375     318    -315     309      10
     375     318     324     327      18     375     318     324     366      18
     375     369     309     300      11     375     369    -309     300      12
     375     369    -309     300      13     375     369    -309     315       8
     375     369     384     387      40     375     369    -384     387      41
     375     369    -384     387      42     384     369     309     300       8
     384     369     309     315      37     384     369    -309     315      38
     384     369     375     318       8     384     387     396     399      46
     384     387    -396     399      47     384     387    -396     399      48
     384     387    -396     399      49     384     387    -396     399      50
     384     387    -396     399      51     204     201     192     195       1
     204     201     192     198       1     213     204     201     192       3
     213     204    -201     192       4     213     204    -201     192       5
     213     204    -201     192       6     213     270     285     288      40
     213     270    -285     288      41     213     270    -285     288      42
     219     213     204     201       8     222     219     213     204       9
     222     219    -213     204      10     222     276    -270     213      11
     222     276    -270     213      12     222     276    -270     213      13
     228     222     219     213      14     228     222    -219     213      10
     231     228     222     219      15     231     228    -222     219      16
     231     228    -222     219      17     237     231     228     222      19
     237     240    -267     228      20     240     237    -231     228      21
     240     267     228     222      22     240     267    -228     231      22
     243     240     237     231      23     243     240     267     228      20
     246     243     240     237      24     255     243     240     237      24
     258     255     243     240      26     258     255     243     246      26
     258     264     267     228      27     258     264    -267     240      27
     264     258     255     243      28     264     267     228     222      22
     264     267     228     231      22     264     267     240     237      20
     264     267    -240     243      20     267     228     222     219      18
     267     228    -231     237      19     267     240    -237     231      23
     267     240     243     246      24     267     240     243     255      24
     267     264    -258     255      28     270     213     204     201      29
     270     213    -204     201      30     270     213    -204     201      31
     270     213    -204     201      32     270     213    -204     201      33
     270     213    -204     201      34     270     213    -219     222       9
     270     213    -219     222      10     270     276    -222     219       8
     270     276     222     228       8     270     285     288     291      43
     270     285     288     294      43     270     285     288     297      44
     270     285    -288     297      45     270     285    -288     297      43
     276     222    -219     213       9     276     222    -219     213      10
     276     222     228     231      18     276     222     228     267      18
     276     270     213     204      11     276     270    -213     204      12
     276     270    -213     204      13     276     270    -213     219       8
     276     270     285     288      40     276     270    -285     288      41
     276     270    -285     288      42     285     270     213     204       8
     285     270     213     219      37     285     270    -213     219      38
     285     270     276     222       8     285     288     297     300      46
     285     288    -297     300      47     285     288    -297     300      48
     285     288    -297     300      49     285     288    -297     300      50
     285     288    -297     300      51     105     102      93      96       1
     105     102      93      99       1     114     105     102      93       3
     114     105    -102      93       4     114     105    -102      93       5
     114     105    -102      93       6     114     174     189     192      40
     114     174    -189     192      41     114     174    -189     192      42
     120     114     105     102       8     123     120     114     105       9
     123     120    -114     105      10     123     180    -174     114      11
     123     180    -174     114      12     123     180    -174     114      13
     129     123     120     114      14     129     123    -120     114      10
     132     129     123     120      52     132     129    -123     120      53
     132     129    -123     120      54     138     132     129     123      19
     138     141    -171     129      20     141     138    -132     129      21
     141     171     129     123      22     141     171    -129     132      22
     144     141     138     132      23     144     141     171     129      20
     147     144     141     138      55     150     144     141     138      55
     156     150     144     141      56     156     150     144     147      56
     156     168     171     129      27     156     168    -171     141      27
     159     156     150     144      57     168     156     150     144      57
     168     171     129     123      22     168     171     129     132      22
     168     171     141     138      20     168     171    -141     144      20
     171     129     123     120      18     171     129    -132     138      19
     171     141    -138     132      23     171     141     144     147      55
     171     141     144     150      55     171     168    -156     150      26
     171     168     156     159      26     174     114     105     102      29
     174     114    -105     102      30     174     114    -105     102      31
     174     114    -105     102      32     174     114    -105     102      33
     174     114    -105     102      34     174     114    -120     123       9
     174     114    -120     123      10     174     180    -123     120       8
     174     180     123     129       8     174     189     192     195      43
     174     189     192     198      43     174     189     192     201      44
     174     189    -192     201      45     174     189    -192     201      43
     180     123    -120     114       9     180     123    -120     114      10
     180     123     129     132      18     180     123     129     171      18
     180     174     114     105      11     180     174    -114     105      12
     180     174    -114     105      13     180     174    -114     120       8
     180     174     189     192      40     180     174    -189     192      41
     180     174    -189     192      42     189     174     114     105       8
     189     174     114     120      37     189     174    -114     120      38
     189     174     180     123       8     189     192     201     204      46
     189     192    -201     204      47     189     192    -201     204      48
     189     192    -201     204      49     189     192    -201     204      50
     189     192    -201     204      51      15      75      90      93      40
      15      75     -90      93      41      15      75     -90      93      42
      21      15       6       3       8      24      21      15       6       9
      24      21     -15       6      10      24      81     -75      15      11
      24      81     -75      15      12      24      81     -75      15      13
      30      24      21      15      14      30      24     -21      15      10
      33      30      24      21      52      33      30     -24      21      53
      33      30     -24      21      54      39      33      30      24      19
      39      42     -72      30      20      42      39     -33      30      21
      42      72      30      24      22      42      72     -30      33      22
      45      42      39      33      23      45      42      72      30      20
      48      45      42      39      55      51      45      42      39      55
      57      51      45      42      56      57      51      45      48      56
      57      69      72      30      27      57      69     -72      42      27
      60      57      51      45      57      69      57      51      45      57
      69      72      30      24      22      69      72      30      33      22
      69      72      42      39      20      69      72     -42      45      20
      72      30      24      21      18      72      30     -33      39      19
      72      42     -39      33      23      72      42      45      48      55
      72      42      45      51      55      72      69     -57      51      26
      72      69      57      60      26      75      15       6       3      29
      75      15      -6       3      30      75      15      -6       3      31
      75      15      -6       3      32      75      15      -6       3      33
      75      15      -6       3      34      75      15     -21      24       9
      75      15     -21      24      10      75      81     -24      21       8
      75      81      24      30       8      75      90      93      96      43
      75      90      93      99      43      75      90      93     102      44
      75      90     -93     102      45      75      90     -93     102      43
      81      24     -21      15       9      81      24     -21      15      10
      81      24      30      33      18      81      24      30      72      18
      81      75      15       6      11      81      75     -15       6      12
      81      75     -15       6      13      81      75     -15      21       8
      81      75      90      93      40      81      75     -90      93      41
      81      75     -90      93      42      90      75      15       6       8
      90      75      15      21      37      90      75     -15      21      38
      90      75      81      24       8      90      93     102     105      46
      90      93    -102     105      47      90      93    -102     105      48
      90      93    -102     105      49      90      93    -102     105      50
      90      93    -102     105      51    1473    1521    1539    1542       2
    1479    1473    1464    1461       8    1482    1479    1473    1464       9
    1482    1479   -1473    1464      10    1482    1527   -1521    1473      11
    1482    1527   -1521    1473      12    1482    1527   -1521    1473      13
    1488    1482    1479    1473      14    1488    1482   -1479    1473      10
    1491    1488    1482    1479      58    1491    1488   -1482    1479      59
    1491    1488   -1482    1479      60    1491    1488   -1482    1479      61
    1497    1491    1488    1482      62    1503    1497    1491    1488      63
    1503    1509   -1515    1488      56    1506    1503    1497    1491      64
    1506    1503   -1497    1491      65    1509    1503    1497    1491      64
    1509    1515    1488    1482      66    1509    1515   -1488    1491      66
    1515    1488    1482    1479      18    1515    1488    1491    1497      62
    1515    1509   -1503    1497      56    1515    1509    1503    1506      56
    1518    1515    1488    1482      66    1518    1515    1488    1491      66
    1518    1515    1509    1503      56    1521    1473    1464    1461      67
    1521    1473   -1464    1461      68    1521    1473   -1464    1461      69
    1521    1473   -1479    1482       9    1521    1473   -1479    1482      10
    1521    1527   -1482    1479       8    1521    1527    1482    1488       8
    1521    1539    1542    1545       1    1521    1539    1542    1548       1
    1521    1539    1542    1551      70    1521    1539   -1542    1551       1
    1527    1482   -1479    1473       9    1527    1482   -1479    1473      10
    1527    1482    1488    1491      18    1527    1482    1488    1515      18
    1527    1521    1473    1464      11    1527    1521   -1473    1464      12
    1527    1521   -1473    1464      13    1527    1521   -1473    1479       8
    1527    1521    1539    1542       2    1533    1527    1482    1479      37
    1533    1527   -1482    1479      38    1533    1527    1482    1488       8
    1533    1527    1521    1473       8    1539    1521    1473    1464       8
    1539    1521    1473    1479      37    1539    1521   -1473    1479      38
    1539    1521    1527    1482       8    1539    1521    1527    1533      37
    1539    1521   -1527    1533      38    1539    1542    1551    1554      71
    1539    1542   -1551    1554      72    1539    1542   -1551    1554      73
    1554    1551    1542    1545       1    1554    1551    1542    1548       1
    1563    1554    1551    1542       2    1563    1611    1629    1632       2
    1569    1563    1554    1551       8    1572    1569    1563    1554       9
    1572    1569   -1563    1554      10    1572    1617   -1611    1563      11
    1572    1617   -1611    1563      12    1572    1617   -1611    1563      13
    1578    1572    1569    1563      14    1578    1572   -1569    1563      10
    1581    1578    1572    1569      58    1581    1578   -1572    1569      59
    1581    1578   -1572    1569      60    1581    1578   -1572    1569      61
    1587    1581    1578    1572      62    1593    1587    1581    1578      63
    1593    1599   -1605    1578      56    1596    1593    1587    1581      64
    1596    1593   -1587    1581      65    1599    1593    1587    1581      64
    1599    1605    1578    1572      66    1599    1605   -1578    1581      66
    1605    1578    1572    1569      18    1605    1578    1581    1587      62
    1605    1599   -1593    1587      56    1605    1599    1593    1596      56
    1608    1605    1578    1572      66    1608    1605    1578    1581      66
    1608    1605    1599    1593      56    1611    1563    1554    1551      67
    1611    1563   -1554    1551      68    1611    1563   -1554    1551      69
    1611    1563   -1569    1572       9    1611    1563   -1569    1572      10
    1611    1617   -1572    1569       8    1611    1617    1572    1578       8
    1611    1629    1632    1635       1    1611    1629    1632    1638       1
    1611    1629    1632    1641      70    1611    1629   -1632    1641       1
    1617    1572   -1569    1563       9    1617    1572   -1569    1563      10
    1617    1572    1578    1581      18    1617    1572    1578    1605      18
    1617    1611    1563    1554      11    1617    1611   -1563    1554      12
    1617    1611   -1563    1554      13    1617    1611   -1563    1569       8
    1617    1611    1629    1632       2    1623    1617    1572    1569      37
    1623    1617   -1572    1569      38    1623    1617    1572    1578       8
    1623    1617    1611    1563       8    1629    1611    1563    1554       8
    1629    1611    1563    1569      37    1629    1611   -1563    1569      38
    1629    1611    1617    1572       8    1629    1611    1617    1623      37
    1629    1611   -1617    1623      38    1629    1632    1641    1644      71
    1629    1632   -1641    1644      72    1629    1632   -1641    1644      73
    1644    1641    1632    1635       1    1644    1641    1632    1638       1
    1653    1644    1641    1632       2    1653    1701    1719    1722       2
    1659    1653    1644    1641       8    1662    1659    1653    1644       9
    1662    1659   -1653    1644      10    1662    1707   -1701    1653      11
    1662    1707   -1701    1653      12    1662    1707   -1701    1653      13
    1668    1662    1659    1653      14    1668    1662   -1659    1653      10
    1671    1668    1662    1659      58    1671    1668   -1662    1659      59
    1671    1668   -1662    1659      60    1671    1668   -1662    1659      61
    1677    1671    1668    1662      62    1683    1677    1671    1668      63
    1683    1689   -1695    1668      56    1686    1683    1677    1671      64
    1686    1683   -1677    1671      65    1689    1683    1677    1671      64
    1689    1695    1668    1662      66    1689    1695   -1668    1671      66
    1695    1668    1662    1659      18    1695    1668    1671    1677      62
    1695    1689   -1683    1677      56    1695    1689    1683    1686      56
    1698    1695    1668    1662      66    1698    1695    1668    1671      66
    1698    1695    1689    1683      56    1701    1653    1644    1641      67
    1701    1653   -1644    1641      68    1701    1653   -1644    1641      69
    1701    1653   -1659    1662       9    1701    1653   -1659    1662      10
    1701    1707   -1662    1659       8    1701    1707    1662    1668       8
    1701    1719    1722    1725       1    1701    1719    1722    1728       1
    1701    1719    1722    1731      70    1701    1719   -1722    1731       1
    1707    1662   -1659    1653       9    1707    1662   -1659    1653      10
    1707    1662    1668    1671      18    1707    1662    1668    1695      18
    1707    1701    1653    1644      11    1707    1701   -1653    1644      12
    1707    1701   -1653    1644      13    1707    1701   -1653    1659       8
    1707    1701    1719    1722       2    1713    1707    1662    1659      37
    1713    1707   -1662    1659      38    1713    1707    1662    1668       8
    1713    1707    1701    1653       8    1719    1701    1653    1644       8
    1719    1701    1653    1659      37    1719    1701   -1653    1659      38
    1719    1701    1707    1662       8    1719    1701    1707    1713      37
    1719    1701   -1707    1713      38    1719    1722    1731    1734      71
    1719    1722   -1731    1734      72    1719    1722   -1731    1734      73
    1734    1731    1722    1725       1    1734    1731    1722    1728       1
    1743    1734    1731    1722       2    1743    1794    1812    1815       2
    1749    1743    1734    1731       8    1752    1749    1743    1734       9
    1752    1749   -1743    1734      10    1752    1800   -1794    1743      11
    1752    1800   -1794    1743      12    1752    1800   -1794    1743      13
    1758    1752    1749    1743      14    1758    1752   -1749    1743      10
    1761    1758    1752    1749      74    1761    1758   -1752    1749      75
    1761    1758   -1752    1749      76    1761    1758   -1752    1749      77
    1767    1761    1758    1752      62    1773    1767    1761    1758      63
    1773    1785   -1788    1758      78    1776    1773    1767    1761      23
    1785    1773    1767    1761      23    1785    1788    1758    1752      66
    1785    1788   -1758    1761      66    1788    1758    1752    1749      18
    1788    1758    1761    1767      62    1788    1785   -1773    1767      26
    1788    1785    1773    1776      26    1791    1788    1758    1752      66
    1791    1788    1758    1761      66    1791    1788    1785    1773      78
    1794    1743    1734    1731      67    1794    1743   -1734    1731      68
    1794    1743   -1734    1731      69    1794    1743   -1749    1752       9
    1794    1743   -1749    1752      10    1794    1800   -1752    1749       8
    1794    1800    1752    1758       8    1794    1812    1815    1818       1
    1794    1812    1815    1821       1    1794    1812    1815    1824      70
    1794    1812   -1815    1824       1    1800    1752   -1749    1743       9
    1800    1752   -1749    1743      10    1800    1752    1758    1761      18
    1800    1752    1758    1788      18    1800    1794    1743    1734      11
    1800    1794   -1743    1734      12    1800    1794   -1743    1734      13
    1800    1794   -1743    1749       8    1800    1794    1812    1815       2
    1806    1800    1752    1749      37    1806    1800   -1752    1749      38
    1806    1800    1752    1758       8    1806    1800    1794    1743       8
    1812    1794    1743    1734       8    1812    1794    1743    1749      37
    1812    1794   -1743    1749      38    1812    1794    1800    1752       8
    1812    1794    1800    1806      37    1812    1794   -1800    1806      38
    1812    1815    1824    1827      71    1812    1815   -1824    1827      72
    1812    1815   -1824    1827      73    1827    1824    1815    1818       1
    1827    1824    1815    1821       1    1836    1827    1824    1815       2
    1836    1884    1902    1905       2    1842    1836    1827    1824       8
    1845    1842    1836    1827       9    1845    1842   -1836    1827      10
    1845    1890   -1884    1836      11    1845    1890   -1884    1836      12
    1845    1890   -1884    1836      13    1851    1845    1842    1836      14
    1851    1845   -1842    1836      10    1854    1851    1845    1842      58
    1854    1851   -1845    1842      59    1854    1851   -1845    1842      60
    1854    1851   -1845    1842      61    1860    1854    1851    1845      62
    1866    1860    1854    1851      63    1866    1872   -1878    1851      56
    1869    1866    1860    1854      64    1869    1866   -1860    1854      65
    1872    1866    1860    1854      64    1872    1878    1851    1845      66
    1872    1878   -1851    1854      66    1878    1851    1845    1842      18
    1878    1851    1854    1860      62    1878    1872   -1866    1860      56
    1878    1872    1866    1869      56    1881    1878    1851    1845      66
    1881    1878    1851    1854      66    1881    1878    1872    1866      56
    1884    1836    1827    1824      67    1884    1836   -1827    1824      68
    1884    1836   -1827    1824      69    1884    1836   -1842    1845       9
    1884    1836   -1842    1845      10    1884    1890   -1845    1842       8
    1884    1890    1845    1851       8    1884    1902    1905    1908       1
    1884    1902    1905    1911       1    1884    1902    1905    1914      70
    1884    1902   -1905    1914       1    1890    1845   -1842    1836       9
    1890    1845   -1842    1836      10    1890    1845    1851    1854      18
    1890    1845    1851    1878      18    1890    1884    1836    1827      11
    1890    1884   -1836    1827      12    1890    1884   -1836    1827      13
    1890    1884   -1836    1842       8    1890    1884    1902    1905       2
    1896    1890    1845    1842      37    1896    1890   -1845    1842      38
    1896    1890    1845    1851       8    1896    1890    1884    1836       8
    1902    1884    1836    1827       8    1902    1884    1836    1842      37
    1902    1884   -1836    1842      38    1902    1884    1890    1845       8
    1902    1884    1890    1896      37    1902    1884   -1890    1896      38
    1902    1905    1914    1917      71    1902    1905   -1914    1917      72
    1902    1905   -1914    1917      73    1917    1914    1905    1908       1
    1917    1914    1905    1911       1    1926    1917    1914    1905       2
    1926    1977    1995    1998       2    1932    1926    1917    1914       8
    1935    1932    1926    1917       9    1935    1932   -1926    1917      10
    1935    1983   -1977    1926      11    1935    1983   -1977    1926      12
    1935    1983   -1977    1926      13    1941    1935    1932    1926      14
    1941    1935   -1932    1926      10    1944    1941    1935    1932      74
    1944    1941   -1935    1932      75    1944    1941   -1935    1932      76
    1944    1941   -1935    1932      77    1950    1944    1941    1935      62
    1956    1950    1944    1941      63    1956    1968   -1971    1941      78
    1959    1956    1950    1944      23    1968    1956    1950    1944      23
    1968    1971    1941    1935      66    1968    1971   -1941    1944      66
    1971    1941    1935    1932      18    1971    1941    1944    1950      62
    1971    1968   -1956    1950      26    1971    1968    1956    1959      26
    1974    1971    1941    1935      66    1974    1971    1941    1944      66
    1974    1971    1968    1956      78    1977    1926    1917    1914      67
    1977    1926   -1917    1914      68    1977    1926   -1917    1914      69
    1977    1926   -1932    1935       9    1977    1926   -1932    1935      10
    1977    1983   -1935    1932       8    1977    1983    1935    1941       8
    1977    1995    1998    2001       1    1977    1995    1998    2004       1
    1977    1995    1998    2007      70    1977    1995   -1998    2007       1
    1983    1935   -1932    1926       9    1983    1935   -1932    1926      10
    1983    1935    1941    1944      18    1983    1935    1941    1971      18
    1983    1977    1926    1917      11    1983    1977   -1926    1917      12
    1983    1977   -1926    1917      13    1983    1977   -1926    1932       8
    1983    1977    1995    1998       2    1989    1983    1935    1932      37
    1989    1983   -1935    1932      38    1989    1983    1935    1941       8
    1989    1983    1977    1926       8    1995    1977    1926    1917       8
    1995    1977    1926    1932      37    1995    1977   -1926    1932      38
    1995    1977    1983    1935       8    1995    1977    1983    1989      37
    1995    1977   -1983    1989      38    1995    1998    2007    2010      71
    1995    1998   -2007    2010      72    1995    1998   -2007    2010      73
    2010    2007    1998    2001       1    2010    2007    1998    2004       1
    2019    2010    2007    1998       2    2019    2067    2085    2088       2
    2025    2019    2010    2007       8    2028    2025    2019    2010       9
    2028    2025   -2019    2010      10    2028    2073   -2067    2019      11
    2028    2073   -2067    2019      12    2028    2073   -2067    2019      13
    2034    2028    2025    2019      14    2034    2028   -2025    2019      10
    2037    2034    2028    2025      58    2037    2034   -2028    2025      59
    2037    2034   -2028    2025      60    2037    2034   -2028    2025      61
    2043    2037    2034    2028      62    2049    2043    2037    2034      63
    2049    2055   -2061    2034      56    2052    2049    2043    2037      64
    2052    2049   -2043    2037      65    2055    2049    2043    2037      64
    2055    2061    2034    2028      66    2055    2061   -2034    2037      66
    2061    2034    2028    2025      18    2061    2034    2037    2043      62
    2061    2055   -2049    2043      56    2061    2055    2049    2052      56
    2064    2061    2034    2028      66    2064    2061    2034    2037      66
    2064    2061    2055    2049      56    2067    2019    2010    2007      67
    2067    2019   -2010    2007      68    2067    2019   -2010    2007      69
    2067    2019   -2025    2028       9    2067    2019   -2025    2028      10
    2067    2073   -2028    2025       8    2067    2073    2028    2034       8
    2067    2085    2088    2091       1    2067    2085    2088    2094       1
    2067    2085    2088    2097      70    2067    2085   -2088    2097       1
    2073    2028   -2025    2019       9    2073    2028   -2025    2019      10
    2073    2028    2034    2037      18    2073    2028    2034    2061      18
    2073    2067    2019    2010      11    2073    2067   -2019    2010      12
    2073    2067   -2019    2010      13    2073    2067   -2019    2025       8
    2073    2067    2085    2088       2    2079    2073    2028    2025      37
    2079    2073   -2028    2025      38    2079    2073    2028    2034       8
    2079    2073    2067    2019       8    2085    2067    2019    2010       8
    2085    2067    2019    2025      37    2085    2067   -2019    2025      38
    2085    2067    2073    2028       8    2085    2067    2073    2079      37
    2085    2067   -2073    2079      38    2085    2088    2097    2100      71
    2085    2088   -2097    2100      72    2085    2088   -2097    2100      73
    2100    2097    2088    2091       1    2100    2097    2088    2094       1
    2109    2100    2097    2088       2    2109    2157    2175    2178       2
    2115    2109    2100    2097       8    2118    2115    2109    2100       9
    2118    2115   -2109    2100      10    2118    2163   -2157    2109      11
    2118    2163   -2157    2109      12    2118    2163   -2157    2109      13
    2124    2118    2115    2109      14    2124    2118   -2115    2109      10
    2127    2124    2118    2115      58    2127    2124   -2118    2115      59
    2127    2124   -2118    2115      60    2127    2124   -2118    2115      61
    2133    2127    2124    2118      62    2139    2133    2127    2124      63
    2139    2145   -2151    2124      56    2142    2139    2133    2127      64
    2142    2139   -2133    2127      65    2145    2139    2133    2127      64
    2145    2151    2124    2118      66    2145    2151   -2124    2127      66
    2151    2124    2118    2115      18    2151    2124    2127    2133      62
    2151    2145   -2139    2133      56    2151    2145    2139    2142      56
    2154    2151    2124    2118      66    2154    2151    2124    2127      66
    2154    2151    2145    2139      56    2157    2109    2100    2097      67
    2157    2109   -2100    2097      68    2157    2109   -2100    2097      69
    2157    2109   -2115    2118       9    2157    2109   -2115    2118      10
    2157    2163   -2118    2115       8    2157    2163    2118    2124       8
    2157    2175    2178    2181       1    2157    2175    2178    2184       1
    2157    2175    2178    2187      70    2157    2175   -2178    2187       1
    2163    2118   -2115    2109       9    2163    2118   -2115    2109      10
    2163    2118    2124    2127      18    2163    2118    2124    2151      18
    2163    2157    2109    2100      11    2163    2157   -2109    2100      12
    2163    2157   -2109    2100      13    2163    2157   -2109    2115       8
    2163    2157    2175    2178       2    2169    2163    2118    2115      37
    2169    2163   -2118    2115      38    2169    2163    2118    2124       8
    2169    2163    2157    2109       8    2175    2157    2109    2100       8
    2175    2157    2109    2115      37    2175    2157   -2109    2115      38
    2175    2157    2163    2118       8    2175    2157    2163    2169      37
    2175    2157   -2163    2169      38    2175    2178    2187    2190      71
    2175    2178   -2187    2190      72    2175    2178   -2187    2190      73
    2190    2187    2178    2181       1    2190    2187    2178    2184       1
    2199    2190    2187    2178       2    2199    2250    2268    2271       2
    2205    2199    2190    2187       8    2208    2205    2199    2190       9
    2208    2205   -2199    2190      10    2208    2256   -2250    2199      11
    2208    2256   -2250    2199      12    2208    2256   -2250    2199      13
    2214    2208    2205    2199      14    2214    2208   -2205    2199      10
    2217    2214    2208    2205      74    2217    2214   -2208    2205      75
    2217    2214   -2208    2205      76    2217    2214   -2208    2205      77
    2223    2217    2214    2208      62    2229    2223    2217    2214      63
    2229    2241   -2244    2214      78    2232    2229    2223    2217      23
    2241    2229    2223    2217      23    2241    2244    2214    2208      66
    2241    2244   -2214    2217      66    2244    2214    2208    2205      18
    2244    2214    2217    2223      62    2244    2241   -2229    2223      26
    2244    2241    2229    2232      26    2247    2244    2214    2208      66
    2247    2244    2214    2217      66    2247    2244    2241    2229      78
    2250    2199    2190    2187      67    2250    2199   -2190    2187      68
    2250    2199   -2190    2187      69    2250    2199   -2205    2208       9
    2250    2199   -2205    2208      10    2250    2256   -2208    2205       8
    2250    2256    2208    2214       8    2250    2268    2271    2274       1
    2250    2268    2271    2277       1    2250    2268    2271    2280      70
    2250    2268   -2271    2280       1    2256    2208   -2205    2199       9
    2256    2208   -2205    2199      10    2256    2208    2214    2217      18
    2256    2208    2214    2244      18    2256    2250    2199    2190      11
    2256    2250   -2199    2190      12    2256    2250   -2199    2190      13
    2256    2250   -2199    2205       8    2256    2250    2268    2271       2
    2262    2256    2208    2205      37    2262    2256   -2208    2205      38
    2262    2256    2208    2214       8    2262    2256    2250    2199       8
    2268    2250    2199    2190       8    2268    2250    2199    2205      37
    2268    2250   -2199    2205      38    2268    2250    2256    2208       8
    2268    2250    2256    2262      37    2268    2250   -2256    2262      38
    2268    2271    2280    2283      71    2268    2271   -2280    2283      72
    2268    2271   -2280    2283      73    2283    2280    2271    2274       1
    2283    2280    2271    2277       1    2292    2283    2280    2271       2
    2292    2343    2361    2364       2    2298    2292    2283    2280       8
    2301    2298    2292    2283       9    2301    2298   -2292    2283      10
    2301    2349   -2343    2292      11    2301    2349   -2343    2292      12
    2301    2349   -2343    2292      13    2307    2301    2298    2292      14
    2307    2301   -2298    2292      10    2310    2307    2301    2298      74
    2310    2307   -2301    2298      75    2310    2307   -2301    2298      76
    2310    2307   -2301    2298      77    2316    2310    2307    2301      62
    2322    2316    2310    2307      63    2322    2334   -2337    2307      78
    2325    2322    2316    2310      23    2334    2322    2316    2310      23
    2334    2337    2307    2301      66    2334    2337   -2307    2310      66
    2337    2307    2301    2298      18    2337    2307    2310    2316      62
    2337    2334   -2322    2316      26    2337    2334    2322    2325      26
    2340    2337    2307    2301      66    2340    2337    2307    2310      66
    2340    2337    2334    2322      78    2343    2292    2283    2280      67
    2343    2292   -2283    2280      68    2343    2292   -2283    2280      69
    2343    2292   -2298    2301       9    2343    2292   -2298    2301      10
    2343    2349   -2301    2298       8    2343    2349    2301    2307       8
    2343    2361    2364    2367       1    2343    2361    2364    2370       1
    2343    2361    2364    2373      70    2343    2361   -2364    2373       1
    2349    2301   -2298    2292       9    2349    2301   -2298    2292      10
    2349    2301    2307    2310      18    2349    2301    2307    2337      18
    2349    2343    2292    2283      11    2349    2343   -2292    2283      12
    2349    2343   -2292    2283      13    2349    2343   -2292    2298       8
    2349    2343    2361    2364       2    2355    2349    2301    2298      37
    2355    2349   -2301    2298      38    2355    2349    2301    2307       8
    2355    2349    2343    2292       8    2361    2343    2292    2283       8
    2361    2343    2292    2298      37    2361    2343   -2292    2298      38
    2361    2343    2349    2301       8    2361    2343    2349    2355      37
    2361    2343   -2349    2355      38    2361    2364    2373    2376      71
    2361    2364   -2373    2376      72    2361    2364   -2373    2376      73
    2376    2373    2364    2367       1    2376    2373    2364    2370       1
    2385    2376    2373    2364       2    2385    2433    2451    2454       2
    2391    2385    2376    2373       8    2394    2391    2385    2376       9
    2394    2391   -2385    2376      10    2394    2439   -2433    2385      11
    2394    2439   -2433    2385      12    2394    2439   -2433    2385      13
    2400    2394    2391    2385      14    2400    2394   -2391    2385      10
    2403    2400    2394    2391      58    2403    2400   -2394    2391      59
    2403    2400   -2394    2391      60    2403    2400   -2394    2391      61
    2409    2403    2400    2394      62    2415    2409    2403    2400      63
    2415    2421   -2427    2400      56    2418    2415    2409    2403      64
    2418    2415   -2409    2403      65    2421    2415    2409    2403      64
    2421    2427    2400    2394      66    2421    2427   -2400    2403      66
    2427    2400    2394    2391      18    2427    2400    2403    2409      62
    2427    2421   -2415    2409      56    2427    2421    2415    2418      56
    2430    2427    2400    2394      66    2430    2427    2400    2403      66
    2430    2427    2421    2415      56    2433    2385    2376    2373      67
    2433    2385   -2376    2373      68    2433    2385   -2376    2373      69
    2433    2385   -2391    2394       9    2433    2385   -2391    2394      10
    2433    2439   -2394    2391       8    2433    2439    2394    2400       8
    2433    2451    2454    2457       1    2433    2451    2454    2460       1
    2433    2451    2454    2463      70    2433    2451   -2454    2463       1
    2439    2394   -2391    2385       9    2439    2394   -2391    2385      10
    2439    2394    2400    2403      18    2439    2394    2400    2427      18
    2439    2433    2385    2376      11    2439    2433   -2385    2376      12
    2439    2433   -2385    2376      13    2439    2433   -2385    2391       8
    2439    2433    2451    2454       2    2445    2439    2394    2391      37
    2445    2439   -2394    2391      38    2445    2439    2394    2400       8
    2445    2439    2433    2385       8    2451    2433    2385    2376       8
    2451    2433    2385    2391      37    2451    2433   -2385    2391      38
    2451    2433    2439    2394       8    2451    2433    2439    2445      37
    2451    2433   -2439    2445      38    2451    2454    2463    2466      71
    2451    2454   -2463    2466      72    2451    2454   -2463    2466      73
    2466    2463    2454    2457       1    2466    2463    2454    2460       1
    2475    2466    2463    2454       2    2475    2526    2544    2547       2
    2481    2475    2466    2463       8    2484    2481    2475    2466       9
    2484    2481   -2475    2466      10    2484    2532   -2526    2475      11
    2484    2532   -2526    2475      12    2484    2532   -2526    2475      13
    2490    2484    2481    2475      14    2490    2484   -2481    2475      10
    2493    2490    2484    2481      74    2493    2490   -2484    2481      75
    2493    2490   -2484    2481      76    2493    2490   -2484    2481      77
    2499    2493    2490    2484      62    2505    2499    2493    2490      63
    2505    2517   -2520    2490      78    2508    2505    2499    2493      23
    2517    2505    2499    2493      23    2517    2520    2490    2484      66
    2517    2520   -2490    2493      66    2520    2490    2484    2481      18
    2520    2490    2493    2499      62    2520    2517   -2505    2499      26
    2520    2517    2505    2508      26    2523    2520    2490    2484      66
    2523    2520    2490    2493      66    2523    2520    2517    2505      78
    2526    2475    2466    2463      67    2526    2475   -2466    2463      68
    2526    2475   -2466    2463      69    2526    2475   -2481    2484       9
    2526    2475   -2481    2484      10    2526    2532   -2484    2481       8
    2526    2532    2484    2490       8    2526    2544    2547    2550       1
    2526    2544    2547    2553       1    2526    2544    2547    2556      70
    2526    2544   -2547    2556       1    2532    2484   -2481    2475       9
    2532    2484   -2481    2475      10    2532    2484    2490    2493      18
    2532    2484    2490    2520      18    2532    2526    2475    2466      11
    2532    2526   -2475    2466      12    2532    2526   -2475    2466      13
    2532    2526   -2475    2481       8    2532    2526    2544    2547       2
    2538    2532    2484    2481      37    2538    2532   -2484    2481      38
    2538    2532    2484    2490       8    2538    2532    2526    2475       8
    2544    2526    2475    2466       8    2544    2526    2475    2481      37
    2544    2526   -2475    2481      38    2544    2526    2532    2484       8
    2544    2526    2532    2538      37    2544    2526   -2532    2538      38
    2544    2547    2556    2559      71    2544    2547   -2556    2559      72
    2544    2547   -2556    2559      73    2559    2556    2547    2550       1
    2559    2556    2547    2553       1    2568    2559    2556    2547       2
    2568    2616    2634    2637       2    2574    2568    2559    2556       8
    2577    2574    2568    2559       9    2577    2574   -2568    2559      10
    2577    2622   -2616    2568      11    2577    2622   -2616    2568      12
    2577    2622   -2616    2568      13    2583    2577    2574    2568      14
    2583    2577   -2574    2568      10    2586    2583    2577    2574      58
    2586    2583   -2577    2574      59    2586    2583   -2577    2574      60
    2586    2583   -2577    2574      61    2592    2586    2583    2577      62
    2598    2592    2586    2583      63    2598    2604   -2610    2583      56
    2601    2598    2592    2586      64    2601    2598   -2592    2586      65
    2604    2598    2592    2586      64    2604    2610    2583    2577      66
    2604    2610   -2583    2586      66    2610    2583    2577    2574      18
    2610    2583    2586    2592      62    2610    2604   -2598    2592      56
    2610    2604    2598    2601      56    2613    2610    2583    2577      66
    2613    2610    2583    2586      66    2613    2610    2604    2598      56
    2616    2568    2559    2556      67    2616    2568   -2559    2556      68
    2616    2568   -2559    2556      69    2616    2568   -2574    2577       9
    2616    2568   -2574    2577      10    2616    2622   -2577    2574       8
    2616    2622    2577    2583       8    2616    2634    2637    2640       1
    2616    2634    2637    2643       1    2616    2634    2637    2646      70
    2616    2634   -2637    2646       1    2622    2577   -2574    2568       9
    2622    2577   -2574    2568      10    2622    2577    2583    2586      18
    2622    2577    2583    2610      18    2622    2616    2568    2559      11
    2622    2616   -2568    2559      12    2622    2616   -2568    2559      13
    2622    2616   -2568    2574       8    2622    2616    2634    2637       2
    2628    2622    2577    2574      37    2628    2622   -2577    2574      38
    2628    2622    2577    2583       8    2628    2622    2616    2568       8
    2634    2616    2568    2559       8    2634    2616    2568    2574      37
    2634    2616   -2568    2574      38    2634    2616    2622    2577       8
    2634    2616    2622    2628      37    2634    2616   -2622    2628      38
    2634    2637    2646    2649      71    2634    2637   -2646    2649      72
    2634    2637   -2646    2649      73    2649    2646    2637    2640       1
    2649    2646    2637    2643       1    2658    2649    2646    2637       2
    2658    2709    2727    2730       2    2664    2658    2649    2646       8
    2667    2664    2658    2649       9    2667    2664   -2658    2649      10
    2667    2715   -2709    2658      11    2667    2715   -2709    2658      12
    2667    2715   -2709    2658      13    2673    2667    2664    2658      14
    2673    2667   -2664    2658      10    2676    2673    2667    2664      74
    2676    2673   -2667    2664      75    2676    2673   -2667    2664      76
    2676    2673   -2667    2664      77    2682    2676    2673    2667      62
    2688    2682    2676    2673      63    2688    2700   -2703    2673      78
    2691    2688    2682    2676      23    2700    2688    2682    2676      23
    2700    2703    2673    2667      66    2700    2703   -2673    2676      66
    2703    2673    2667    2664      18    2703    2673    2676    2682      62
    2703    2700   -2688    2682      26    2703    2700    2688    2691      26
    2706    2703    2673    2667      66    2706    2703    2673    2676      66
    2706    2703    2700    2688      78    2709    2658    2649    2646      67
    2709    2658   -2649    2646      68    2709    2658   -2649    2646      69
    2709    2658   -2664    2667       9    2709    2658   -2664    2667      10
    2709    2715   -2667    2664       8    2709    2715    2667    2673       8
    2709    2727    2730    2733       1    2709    2727    2730    2736       1
    2709    2727    2730    2739      70    2709    2727   -2730    2739       1
    2715    2667   -2664    2658       9    2715    2667   -2664    2658      10
    2715    2667    2673    2676      18    2715    2667    2673    2703      18
    2715    2709    2658    2649      11    2715    2709   -2658    2649      12
    2715    2709   -2658    2649      13    2715    2709   -2658    2664       8
    2715    2709    2727    2730       2    2721    2715    2667    2664      37
    2721    2715   -2667    2664      38    2721    2715    2667    2673       8
    2721    2715    2709    2658       8    2727    2709    2658    2649       8
    2727    2709    2658    2664      37    2727    2709   -2658    2664      38
    2727    2709    2715    2667       8    2727    2709    2715    2721      37
    2727    2709   -2715    2721      38    2727    2730    2739    2742      71
    2727    2730   -2739    2742      72    2727    2730   -2739    2742      73
    2742    2739    2730    2733       1    2742    2739    2730    2736       1
    2751    2742    2739    2730       2    2757    2751    2742    2739       8
    2760    2757    2751    2742       9    2760    2757   -2751    2742      10
    2760    2808   -2802    2751      11    2760    2808   -2802    2751      12
    2760    2808   -2802    2751      13    2766    2760    2757    2751      14
    2766    2760   -2757    2751      10    2769    2766    2760    2757      74
    2769    2766   -2760    2757      75    2769    2766   -2760    2757      76
    2769    2766   -2760    2757      77    2775    2769    2766    2760      62
    2781    2775    2769    2766      63    2781    2793   -2796    2766      78
    2784    2781    2775    2769      23    2793    2781    2775    2769      23
    2793    2796    2766    2760      66    2793    2796   -2766    2769      66
    2796    2766    2760    2757      18    2796    2766    2769    2775      62
    2796    2793   -2781    2775      26    2796    2793    2781    2784      26
    2799    2796    2766    2760      66    2799    2796    2766    2769      66
    2799    2796    2793    2781      78    2802    2751    2742    2739      67
    2802    2751   -2742    2739      68    2802    2751   -2742    2739      69
    2802    2751   -2757    2760       9    2802    2751   -2757    2760      10
    2802    2808   -2760    2757       8    2802    2808    2760    2766       8
    2808    2760   -2757    2751       9    2808    2760   -2757    2751      10
    2808    2760    2766    2769      18    2808    2760    2766    2796      18
    2808    2802    2751    2742      11    2808    2802   -2751    2742      12
    2808    2802   -2751    2742      13    2808    2802   -2751    2757       8
    2814    2808    2760    2757      37    2814    2808   -2760    2757      38
    2814    2808    2760    2766       8    2814    2808    2802    2751       8
    2820    2802    2751    2742       8    2820    2802    2751    2757      37
    2820    2802   -2751    2757      38    2820    2802    2808    2760       8
    2820    2802    2808    2814      37    2820    2802   -2808    2814      38
    1434    1398   -1395   -1389      80    1404    1410   -1407   -1434      79
    1407    1413   -1410   -1422      81    1395    1407   -1434   -1431      79
    1302    1338   -1299   -1293      80    1314    1338   -1311   -1308      79
    1311    1317   -1314   -1326      81    1311    1299   -1338   -1335      79
    1206    1242   -1203   -1197      80    1218    1242   -1215   -1212      79
    1215    1221   -1218   -1230      81    1215    1203   -1242   -1239      79
    1146    1107   -1104   -1098      80    1113    1119   -1116   -1146      79
    1116    1125   -1119   -1122      82    1134    1125   -1131   -1143      81
    1116    1104   -1146   -1143      79    1011    1047   -1008   -1002      80
    1023    1047   -1020   -1017      79    1020    1026   -1023   -1035      81
    1020    1008   -1047   -1044      79     951     912    -909    -903      80
     924     951    -921    -918      79     921     930    -924    -927      82
     939     930    -936    -948      81     921     909    -951    -948      79
     816     852    -813    -807      80     828     852    -825    -822      79
     825     831    -828    -840      81     825     813    -852    -849      79
     720     756    -717    -711      80     732     756    -729    -726      79
     729     735    -732    -744      81     729     717    -756    -753      79
     660     621    -618    -612      80     633     660    -630    -627      79
     630     639    -633    -636      82     648     639    -645    -657      81
     630     618    -660    -657      79     561     522    -519    -513      80
     534     561    -531    -528      79     531     540    -534    -537      82
     549     540    -546    -558      81     531     519    -561    -558      79
     426     462    -423    -417      80     438     462    -435    -432      79
     435     441    -438    -450      81     435     423    -462    -459      79
     366     327    -324    -318      80     339     366    -336    -333      79
     336     345    -339    -342      82     354     345    -351    -363      81
     336     324    -366    -363      79     231     267    -228    -222      80
     243     267    -240    -237      79     240     246    -243    -255      81
     240     228    -267    -264      79     171     132    -129    -123      80
     144     171    -141    -138      79     141     150    -144    -147      82
     159     150    -156    -168      81     141     129    -171    -168      79
      72      33     -30     -24      80      45      72     -42     -39      79
      42      51     -45     -48      82      60      51     -57     -69      81
      42      30     -72     -69      79    1515    1491   -1488   -1482      80
    1497    1509   -1503   -1506      82    1488    1509   -1515   -1518      82
    1605    1581   -1578   -1572      80    1587    1599   -1593   -1596      82
    1578    1599   -1605   -1608      82    1695    1671   -1668   -1662      80
    1677    1689   -1683   -1686      82    1668    1689   -1695   -1698      82
    1788    1761   -1758   -1752      80    1767    1776   -1773   -1785      81
    1758    1785   -1788   -1791      82    1878    1854   -1851   -1845      80
    1860    1872   -1866   -1869      82    1851    1872   -1878   -1881      82
    1971    1944   -1941   -1935      80    1950    1959   -1956   -1968      81
    1941    1968   -1971   -1974      82    2061    2037   -2034   -2028      80
    2043    2055   -2049   -2052      82    2034    2055   -2061   -2064      82
    2151    2127   -2124   -2118      80    2133    2145   -2139   -2142      82
    2124    2145   -2151   -2154      82    2244    2217   -2214   -2208      80
    2223    2232   -2229   -2241      81    2214    2241   -2244   -2247      82
    2337    2310   -2307   -2301      80    2316    2325   -2322   -2334      81
    2307    2334   -2337   -2340      82    2427    2403   -2400   -2394      80
    2409    2421   -2415   -2418      82    2400    2421   -2427   -2430      82
    2520    2493   -2490   -2484      80    2499    2508   -2505   -2517      81
    2490    2517   -2520   -2523      82    2610    2586   -2583   -2577      80
    2592    2604   -2598   -2601      82    2583    2604   -2610   -2613      82
    2703    2676   -2673   -2667      80    2682    2691   -2688   -2700      81
    2673    2700   -2703   -2706      82    2796    2769   -2766   -2760      80
    2775    2784   -2781   -2793      81    2766    2793   -2796   -2799      82
%FLAG EXCLUDED_ATOMS_LIST                                                       
%FORMAT(10I8)                                                                   
       2       3       4       5       6       3       4       5       6       7
       8      26       4       5       6       7       8       9      26      27
      28      31       5       6       7       8      26       6       7       8
      26       7       8       9      10      11      26      27      28      29
      30      31      32       8       9      26      27      28      31       9
      10      11      12      25      26      27      28      29      30      31
      10      11      12      13      14      15      24      25      26      27
      28      29      30      31      11      12      25      26      28      29
      30      12      13      14      15      16      20      24      25      26
      28      29      30      13      14      15      16      24      25      28
      14      15      25      15      16      17      18      24      25      16
      17      18      19      20      24      25      17      18      19      20
      21      24      25      18      19      20      25      19      20      21
      22      23      24      25      20      21      24      21      22      23
      24      25      22      23      24      25      23      24      24      25
      28      27      28      29      30      31      32      33      34      35
      28      29      30      31      32      29      30      31      32      30
      31      31      32      33      34      35      36      33      34      35
      36      37      38      39      34      35      36      35      36      36
      37      38      39      40      41      59      37      38      39      40
      41      42      59      60      61      64      38      39      40      41
      59      39      40      41      59      40      41      42      43      44
      59      60      61      62      63      64      65      41      42      59
      60      61      64      42      43      44      45      58      59      60
      61      62      63      64      43      44      45      46      47      48
      57      58      59      60      61      62      63      64      44      45
      58      59      61      62      63      45      46      47      48      49
      53      57      58      59      61      62      63      46      47      48
      49      57      58      61      47      48      58      48      49      50
      51      57      58      49      50      51      52      53      57      58
      50      51      52      53      54      57      58      51      52      53
      58      52      53      54      55      56      57      58      53      54
      57      54      55      56      57      58      55      56      57      58
      56      57      57      58      61      60      61      62      63      64
      65      66      67      68      61      62      63      64      65      62
      63      64      65      63      64      64      65      66      67      68
      69      66      67      68      69      70      71      72      67      68
      69      68      69      69      70      71      72      73      74      91
      70      71      72      73      74      75      91      92      93      96
      71      72      73      74      91      72      73      74      91      73
      74      75      76      77      91      92      93      94      95      96
      97      74      75      91      92      93      96      75      76      77
      78      90      91      92      93      94      95      96      76      77
      78      79      80      81      89      90      91      92      93      94
      95      96      77      78      90      91      93      94      95      78
      79      80      81      82      87      89      90      91      93      94
      95      79      80      81      82      89      90      93      80      81
      90      81      82      83      86      89      90      82      83      84
      85      86      87      89      90      83      84      85      86      87
      88      89      90      84      85      86      87      90      85      86
      86      87      88      89      90      88      89      90      89      90
      90      93      92      93      94      95      96      97      98      99
     100      93      94      95      96      97      94      95      96      97
      95      96      96      97      98      99     100     101      98      99
     100     101     102     103     104      99     100     101     100     101
     101     102     103     104     105     106     124     102     103     104
     105     106     107     124     125     126     129     103     104     105
     106     124     104     105     106     124     105     106     107     108
     109     124     125     126     127     128     129     130     106     107
     124     125     126     129     107     108     109     110     123     124
     125     126     127     128     129     108     109     110     111     112
     113     122     123     124     125     126     127     128     129     109
     110     123     124     126     127     128     110     111     112     113
     114     118     122     123     124     126     127     128     111     112
     113     114     122     123     126     112     113     123     113     114
     115     116     122     123     114     115     116     117     118     122
     123     115     116     117     118     119     122     123     116     117
     118     123     117     118     119     120     121     122     123     118
     119     122     119     120     121     122     123     120     121     122
     123     121     122     122     123     126     125     126     127     128
     129     130     131     132     133     126     127     128     129     130
     127     128     129     130     128     129     129     130     131     132
     133     134     131     132     133     134     135     136     137     132
     133     134     133     134     134     135     136     137     138     139
     156     135     136     137     138     139     140     156     157     158
     161     136     137     138     139     156     137     138     139     156
     138     139     140     141     142     156     157     158     159     160
     161     162     139     140     156     157     158     161     140     141
     142     143     155     156     157     158     159     160     161     141
     142     143     144     145     146     154     155     156     157     158
     159     160     161     142     143     155     156     158     159     160
     143     144     145     146     147     152     154     155     156     158
     159     160     144     145     146     147     154     155     158     145
     146     155     146     147     148     151     154     155     147     148
     149     150     151     152     154     155     148     149     150     151
     152     153     154     155     149     150     151     152     155     150
     151     151     152     153     154     155     153     154     155     154
     155     155     158     157     158     159     160     161     162     163
     164     165     158     159     160     161     162     159     160     161
     162     160     161     161     162     163     164     165     166     163
     164     165     166     167     168     169     164     165     166     165
     166     166     167     168     169     170     171     189     167     168
     169     170     171     172     189     190     191     194     168     169
     170     171     189     169     170     171     189     170     171     172
     173     174     189     190     191     192     193     194     195     171
     172     189     190     191     194     172     173     174     175     188
     189     190     191     192     193     194     173     174     175     176
     177     178     187     188     189     190     191     192     193     194
     174     175     188     189     191     192     193     175     176     177
     178     179     183     187     188     189     191     192     193     176
     177     178     179     187     188     191     177     178     188     178
     179     180     181     187     188     179     180     181     182     183
     187     188     180     181     182     183     184     187     188     181
     182     183     188     182     183     184     185     186     187     188
     183     184     187     184     185     186     187     188     185     186
     187     188     186     187     187     188     191     190     191     192
     193     194     195     196     197     198     191     192     193     194
     195     192     193     194     195     193     194     194     195     196
     197     198     199     196     197     198     199     200     201     202
     197     198     199     198     199     199     200     201     202     203
     204     222     200     201     202     203     204     205     222     223
     224     227     201     202     203     204     222     202     203     204
     222     203     204     205     206     207     222     223     224     225
     226     227     228     204     205     222     223     224     227     205
     206     207     208     221     222     223     224     225     226     227
     206     207     208     209     210     211     220     221     222     223
     224     225     226     227     207     208     221     222     224     225
     226     208     209     210     211     212     216     220     221     222
     224     225     226     209     210     211     212     220     221     224
     210     211     221     211     212     213     214     220     221     212
     213     214     215     216     220     221     213     214     215     216
     217     220     221     214     215     216     221     215     216     217
     218     219     220     221     216     217     220     217     218     219
     220     221     218     219     220     221     219     220     220     221
     224     223     224     225     226     227     228     229     230     231
     224     225     226     227     228     225     226     227     228     226
     227     227     228     229     230     231     232     229     230     231
     232     233     234     235     230     231     232     231     232     232
     233     234     235     236     237     254     233     234     235     236
     237     238     254     255     256     259     234     235     236     237
     254     235     236     237     254     236     237     238     239     240
     254     255     256     257     258     259     260     237     238     254
     255     256     259     238     239     240     241     253     254     255
     256     257     258     259     239     240     241     242     243     244
     252     253     254     255     256     257     258     259     240     241
     253     254     256     257     258     241     242     243     244     245
     250     252     253     254     256     257     258     242     243     244
     245     252     253     256     243     244     253     244     245     246
     249     252     253     245     246     247     248     249     250     252
     253     246     247     248     249     250     251     252     253     247
     248     249     250     253     248     249     249     250     251     252
     253     251     252     253     252     253     253     256     255     256
     257     258     259     260     261     262     263     256     257     258
     259     260     257     258     259     260     258     259     259     260
     261     262     263     264     261     262     263     264     265     266
     267     262     263     264     263     264     264     265     266     267
     268     269     286     265     266     267     268     269     270     286
     287     288     291     266     267     268     269     286     267     268
     269     286     268     269     270     271     272     286     287     288
     289     290     291     292     269     270     286     287     288     291
     270     271     272     273     285     286     287     288     289     290
     291     271     272     273     274     275     276     284     285     286
     287     288     289     290     291     272     273     285     286     288
     289     290     273     274     275     276     277     282     284     285
     286     288     289     290     274     275     276     277     284     285
     288     275     276     285     276     277     278     281     284     285
     277     278     279     280     281     282     284     285     278     279
     280     281     282     283     284     285     279     280     281     282
     285     280     281     281     282     283     284     285     283     284
     285     284     285     285     288     287     288     289     290     291
     292     293     294     295     288     289     290     291     292     289
     290     291     292     290     291     291     292     293     294     295
     296     293     294     295     296     297     298     299     294     295
     296     295     296     296     297     298     299     300     301     319
     297     298     299     300     301     302     319     320     321     324
     298     299     300     301     319     299     300     301     319     300
     301     302     303     304     319     320     321     322     323     324
     325     301     302     319     320     321     324     302     303     304
     305     318     319     320     321     322     323     324     303     304
     305     306     307     308     317     318     319     320     321     322
     323     324     304     305     318     319     321     322     323     305
     306     307     308     309     313     317     318     319     321     322
     323     306     307     308     309     317     318     321     307     308
     318     308     309     310     311     317     318     309     310     311
     312     313     317     318     310     311     312     313     314     317
     318     311     312     313     318     312     313     314     315     316
     317     318     313     314     317     314     315     316     317     318
     315     316     317     318     316     317     317     318     321     320
     321     322     323     324     325     326     327     328     321     322
     323     324     325     322     323     324     325     323     324     324
     325     326     327     328     329     326     327     328     329     330
     331     332     327     328     329     328     329     329     330     331
     332     333     334     351     330     331     332     333     334     335
     351     352     353     356     331     332     333     334     351     332
     333     334     351     333     334     335     336     337     351     352
     353     354     355     356     357     334     335     351     352     353
     356     335     336     337     338     350     351     352     353     354
     355     356     336     337     338     339     340     341     349     350
     351     352     353     354     355     356     337     338     350     351
     353     354     355     338     339     340     341     342     347     349
     350     351     353     354     355     339     340     341     342     349
     350     353     340     341     350     341     342     343     346     349
     350     342     343     344     345     346     347     349     350     343
     344     345     346     347     348     349     350     344     345     346
     347     350     345     346     346     347     348     349     350     348
     349     350     349     350     350     353     352     353     354     355
     356     357     358     359     360     353     354     355     356     357
     354     355     356     357     355     356     356     357     358     359
     360     361     358     359     360     361     362     363     364     359
     360     361     360     361     361     362     363     364     365     366
     384     362     363     364     365     366     367     384     385     386
     389     363     364     365     366     384     364     365     366     384
     365     366     367     368     369     384     385     386     387     388
     389     390     366     367     384     385     386     389     367     368
     369     370     383     384     385     386     387     388     389     368
     369     370     371     372     373     382     383     384     385     386
     387     388     389     369     370     383     384     386     387     388
     370     371     372     373     374     378     382     383     384     386
     387     388     371     372     373     374     382     383     386     372
     373     383     373     374     375     376     382     383     374     375
     376     377     378     382     383     375     376     377     378     379
     382     383     376     377     378     383     377     378     379     380
     381     382     383     378     379     382     379     380     381     382
     383     380     381     382     383     381     382     382     383     386
     385     386     387     388     389     390     391     392     393     386
     387     388     389     390     387     388     389     390     388     389
     389     390     391     392     393     394     391     392     393     394
     395     396     397     392     393     394     393     394     394     395
     396     397     398     399     416     395     396     397     398     399
     400     416     417     418     421     396     397     398     399     416
     397     398     399     416     398     399     400     401     402     416
     417     418     419     420     421     422     399     400     416     417
     418     421     400     401     402     403     415     416     417     418
     419     420     421     401     402     403     404     405     406     414
     415     416     417     418     419     420     421     402     403     415
     416     418     419     420     403     404     405     406     407     412
     414     415     416     418     419     420     404     405     406     407
     414     415     418     405     406     415     406     407     408     411
     414     415     407     408     409     410     411     412     414     415
     408     409     410     411     412     413     414     415     409     410
     411     412     415     410     411     411     412     413     414     415
     413     414     415     414     415     415     418     417     418     419
     420     421     422     423     424     425     418     419     420     421
     422     419     420     421     422     420     421     421     422     423
     424     425     426     423     424     425     426     427     428     429
     424     425     426     425     426     426     427     428     429     430
     431     448     427     428     429     430     431     432     448     449
     450     453     428     429     430     431     448     429     430     431
     448     430     431     432     433     434     448     449     450     451
     452     453     454     431     432     448     449     450     453     432
     433     434     435     447     448     449     450     451     452     453
     433     434     435     436     437     438     446     447     448     449
     450     451     452     453     434     435     447     448     450     451
     452     435     436     437     438     439     444     446     447     448
     450     451     452     436     437     438     439     446     447     450
     437     438     447     438     439     440     443     446     447     439
     440     441     442     443     444     446     447     440     441     442
     443     444     445     446     447     441     442     443     444     447
     442     443     443     444     445     446     447     445     446     447
     446     447     447     450     449     450     451     452     453     454
     455     456     457     450     451     452     453     454     451     452
     453     454     452     453     453     454     455     456     457     458
     455     456     457     458     459     460     461     456     457     458
     457     458     458     459     460     461     462     463     480     459
     460     461     462     463     464     480     481     482     485     460
     461     462     463     480     461     462     463     480     462     463
     464     465     466     480     481     482     483     484     485     486
     463     464     480     481     482     485     464     465     466     467
     479     480     481     482     483     484     485     465     466     467
     468     469     470     478     479     480     481     482     483     484
     485     466     467     479     480     482     483     484     467     468
     469     470     471     476     478     479     480     482     483     484
     468     469     470     471     478     479     482     469     470     479
     470     471     472     475     478     479     471     472     473     474
     475     476     478     479     472     473     474     475     476     477
     478     479     473     474     475     476     479     474     475     475
     476     477     478     479     477     478     479     478     479     479
     482     481     482     483     484     485     486     482     483     484
     485     486     483     484     485     486     484     485     485     486
       0     488     489     490     491     492     489     490     491     492
     493     494     508     490     491     492     493     494     495     508
     509     510     514     491     492     493     494     508     492     493
     494     508     493     494     495     496     497     508     509     510
     511     512     514     515     494     495     508     509     510     514
     495     496     497     498     506     508     509     510     511     512
     514     496     497     498     499     500     504     506     507     508
     509     510     511     512     513     514     497     498     506     508
     510     511     512     498     499     500     501     502     504     505
     506     507     508     510     511     512     499     500     501     502
     503     504     506     507     510     500     501     502     506     501
     502     503     504     505     506     502     503     504     503     504
     505     506     507     504     505     506     505     506     507     506
     507     507     510       0     509     510     511     512     513     514
     515     516     517     518     510     511     512     514     515     511
     512     513     514     515     512     513     514     513     514       0
     515     516     517     518     519     516     517     518     519     520
     521     522     517     518     519     518     519     519     520     521
     522     523     524     538     520     521     522     523     524     525
     538     539     540     544     521     522     523     524     538     522
     523     524     538     523     524     525     526     527     538     539
     540     541     542     544     545     524     525     538     539     540
     544     525     526     527     528     536     538     539     540     541
     542     544     526     527     528     529     530     534     536     537
     538     539     540     541     542     543     544     527     528     536
     538     540     541     542     528     529     530     531     532     534
     535     536     537     538     540     541     542     529     530     531
     532     533     534     536     537     540     530     531     532     536
     531     532     533     534     535     536     532     533     534     533
     534     535     536     537     534     535     536     535     536     537
     536     537     537     540       0     539     540     541     542     543
     544     545     546     547     548     540     541     542     544     545
     541     542     543     544     545     542     543     544     543     544
       0     545     546     547     548     549     546     547     548     549
     550     551     552     547     548     549     548     549     549     550
     551     552     553     554     568     550     551     552     553     554
     555     568     569     570     574     551     552     553     554     568
     552     553     554     568     553     554     555     556     557     568
     569     570     571     572     574     575     554     555     568     569
     570     574     555     556     557     558     566     568     569     570
     571     572     574     556     557     558     559     560     564     566
     567     568     569     570     571     572     573     574     557     558
     566     568     570     571     572     558     559     560     561     562
     564     565     566     567     568     570     571     572     559     560
     561     562     563     564     566     567     570     560     561     562
     566     561     562     563     564     565     566     562     563     564
     563     564     565     566     567     564     565     566     565     566
     567     566     567     567     570       0     569     570     571     572
     573     574     575     576     577     578     570     571     572     574
     575     571     572     573     574     575     572     573     574     573
     574       0     575     576     577     578     579     576     577     578
     579     580     581     582     577     578     579     578     579     579
     580     581     582     583     584     599     580     581     582     583
     584     585     599     600     601     605     581     582     583     584
     599     582     583     584     599     583     584     585     586     587
     599     600     601     602     603     605     606     584     585     599
     600     601     605     585     586     587     588     597     599     600
     601     602     603     605     586     587     588     589     590     596
     597     598     599     600     601     602     603     604     605     587
     588     597     599     601     602     603     588     589     590     591
     592     596     597     598     599     601     602     603     589     590
     591     592     593     596     597     598     601     590     591     592
     597     591     592     593     594     595     596     597     592     593
     596     593     594     595     596     597     598     594     595     596
     597     595     596     596     597     598     598     601       0     600
     601     602     603     604     605     606     607     608     609     601
     602     603     605     606     602     603     604     605     606     603
     604     605     604     605       0     606     607     608     609     610
     607     608     609     610     611     612     613     608     609     610
     609     610     610     611     612     613     614     615     629     611
     612     613     614     615     616     629     630     631     635     612
     613     614     615     629     613     614     615     629     614     615
     616     617     618     629     630     631     632     633     635     636
     615     616     629     630     631     635     616     617     618     619
     627     629     630     631     632     633     635     617     618     619
     620     621     625     627     628     629     630     631     632     633
     634     635     618     619     627     629     631     632     633     619
     620     621     622     623     625     626     627     628     629     631
     632     633     620     621     622     623     624     625     627     628
     631     621     622     623     627     622     623     624     625     626
     627     623     624     625     624     625     626     627     628     625
     626     627     626     627     628     627     628     628     631       0
     630     631     632     633     634     635     636     637     638     639
     631     632     633     635     636     632     633     634     635     636
     633     634     635     634     635       0     636     637     638     639
     640     637     638     639     640     641     642     643     638     639
     640     639     640     640     641     642     643     644     645     660
     641     642     643     644     645     646     660     661     662     666
     642     643     644     645     660     643     644     645     660     644
     645     646     647     648     660     661     662     663     664     666
     667     645     646     660     661     662     666     646     647     648
     649     658     660     661     662     663     664     666     647     648
     649     650     651     657     658     659     660     661     662     663
     664     665     666     648     649     658     660     662     663     664
     649     650     651     652     653     657     658     659     660     662
     663     664     650     651     652     653     654     657     658     659
     662     651     652     653     658     652     653     654     655     656
     657     658     653     654     657     654     655     656     657     658
     659     655     656     657     658     656     657     657     658     659
     659     662       0     661     662     663     664     665     666     667
     668     669     670     662     663     664     666     667     663     664
     665     666     667     664     665     666     665     666       0     667
     668     669     670     671     668     669     670     671     672     673
     674     669     670     671     670     671     671     672     673     674
     675     676     690     672     673     674     675     676     677     690
     691     692     696     673     674     675     676     690     674     675
     676     690     675     676     677     678     679     690     691     692
     693     694     696     697     676     677     690     691     692     696
     677     678     679     680     688     690     691     692     693     694
     696     678     679     680     681     682     686     688     689     690
     691     692     693     694     695     696     679     680     688     690
     692     693     694     680     681     682     683     684     686     687
     688     689     690     692     693     694     681     682     683     684
     685     686     688     689     692     682     683     684     688     683
     684     685     686     687     688     684     685     686     685     686
     687     688     689     686     687     688     687     688     689     688
     689     689     692       0     691     692     693     694     695     696
     697     698     699     700     692     693     694     696     697     693
     694     695     696     697     694     695     696     695     696       0
     697     698     699     700     701     698     699     700     701     702
     703     704     699     700     701     700     701     701     702     703
     704     705     706     720     702     703     704     705     706     707
     720     721     722     726     703     704     705     706     720     704
     705     706     720     705     706     707     708     709     720     721
     722     723     724     726     727     706     707     720     721     722
     726     707     708     709     710     718     720     721     722     723
     724     726     708     709     710     711     712     716     718     719
     720     721     722     723     724     725     726     709     710     718
     720     722     723     724     710     711     712     713     714     716
     717     718     719     720     722     723     724     711     712     713
     714     715     716     718     719     722     712     713     714     718
     713     714     715     716     717     718     714     715     716     715
     716     717     718     719     716     717     718     717     718     719
     718     719     719     722       0     721     722     723     724     725
     726     727     728     729     730     722     723     724     726     727
     723     724     725     726     727     724     725     726     725     726
       0     727     728     729     730     731     728     729     730     731
     732     733     734     729     730     731     730     731     731     732
     733     734     735     736     751     732     733     734     735     736
     737     751     752     753     757     733     734     735     736     751
     734     735     736     751     735     736     737     738     739     751
     752     753     754     755     757     758     736     737     751     752
     753     757     737     738     739     740     749     751     752     753
     754     755     757     738     739     740     741     742     748     749
     750     751     752     753     754     755     756     757     739     740
     749     751     753     754     755     740     741     742     743     744
     748     749     750     751     753     754     755     741     742     743
     744     745     748     749     750     753     742     743     744     749
     743     744     745     746     747     748     749     744     745     748
     745     746     747     748     749     750     746     747     748     749
     747     748     748     749     750     750     753       0     752     753
     754     755     756     757     758     759     760     761     753     754
     755     757     758     754     755     756     757     758     755     756
     757     756     757       0     758     759     760     761     762     759
     760     761     762     763     764     765     760     761     762     761
     762     762     763     764     765     766     767     782     763     764
     765     766     767     768     782     783     784     788     764     765
     766     767     782     765     766     767     782     766     767     768
     769     770     782     783     784     785     786     788     789     767
     768     782     783     784     788     768     769     770     771     780
     782     783     784     785     786     788     769     770     771     772
     773     779     780     781     782     783     784     785     786     787
     788     770     771     780     782     784     785     786     771     772
     773     774     775     779     780     781     782     784     785     786
     772     773     774     775     776     779     780     781     784     773
     774     775     780     774     775     776     777     778     779     780
     775     776     779     776     777     778     779     780     781     777
     778     779     780     778     779     779     780     781     781     784
       0     783     784     785     786     787     788     789     790     791
     792     784     785     786     788     789     785     786     787     788
     789     786     787     788     787     788       0     789     790     791
     792     793     790     791     792     793     794     795     796     791
     792     793     792     793     793     794     795     796     797     798
     812     794     795     796     797     798     799     812     813     814
     818     795     796     797     798     812     796     797     798     812
     797     798     799     800     801     812     813     814     815     816
     818     819     798     799     812     813     814     818     799     800
     801     802     810     812     813     814     815     816     818     800
     801     802     803     804     808     810     811     812     813     814
     815     816     817     818     801     802     810     812     814     815
     816     802     803     804     805     806     808     809     810     811
     812     814     815     816     803     804     805     806     807     808
     810     811     814     804     805     806     810     805     806     807
     808     809     810     806     807     808     807     808     809     810
     811     808     809     810     809     810     811     810     811     811
     814       0     813     814     815     816     817     818     819     820
     821     822     814     815     816     818     819     815     816     817
     818     819     816     817     818     817     818       0     819     820
     821     822     823     820     821     822     823     824     825     826
     821     822     823     822     823     823     824     825     826     827
     828     843     824     825     826     827     828     829     843     844
     845     849     825     826     827     828     843     826     827     828
     843     827     828     829     830     831     843     844     845     846
     847     849     850     828     829     843     844     845     849     829
     830     831     832     841     843     844     845     846     847     849
     830     831     832     833     834     840     841     842     843     844
     845     846     847     848     849     831     832     841     843     845
     846     847     832     833     834     835     836     840     841     842
     843     845     846     847     833     834     835     836     837     840
     841     842     845     834     835     836     841     835     836     837
     838     839     840     841     836     837     840     837     838     839
     840     841     842     838     839     840     841     839     840     840
     841     842     842     845       0     844     845     846     847     848
     849     850     851     852     853     845     846     847     849     850
     846     847     848     849     850     847     848     849     848     849
       0     850     851     852     853     854     851     852     853     854
     855     856     857     852     853     854     853     854     854     855
     856     857     858     859     873     855     856     857     858     859
     860     873     874     875     879     856     857     858     859     873
     857     858     859     873     858     859     860     861     862     873
     874     875     876     877     879     880     859     860     873     874
     875     879     860     861     862     863     871     873     874     875
     876     877     879     861     862     863     864     865     869     871
     872     873     874     875     876     877     878     879     862     863
     871     873     875     876     877     863     864     865     866     867
     869     870     871     872     873     875     876     877     864     865
     866     867     868     869     871     872     875     865     866     867
     871     866     867     868     869     870     871     867     868     869
     868     869     870     871     872     869     870     871     870     871
     872     871     872     872     875       0     874     875     876     877
     878     879     880     881     882     883     875     876     877     879
     880     876     877     878     879     880     877     878     879     878
     879       0     880     881     882     883     884     881     882     883
     884     885     886     887     882     883     884     883     884     884
     885     886     887     888     889     904     885     886     887     888
     889     890     904     905     906     910     886     887     888     889
     904     887     888     889     904     888     889     890     891     892
     904     905     906     907     908     910     911     889     890     904
     905     906     910     890     891     892     893     902     904     905
     906     907     908     910     891     892     893     894     895     901
     902     903     904     905     906     907     908     909     910     892
     893     902     904     906     907     908     893     894     895     896
     897     901     902     903     904     906     907     908     894     895
     896     897     898     901     902     903     906     895     896     897
     902     896     897     898     899     900     901     902     897     898
     901     898     899     900     901     902     903     899     900     901
     902     900     901     901     902     903     903     906       0     905
     906     907     908     909     910     911     912     913     914     906
     907     908     910     911     907     908     909     910     911     908
     909     910     909     910       0     911     912     913     914     915
     912     913     914     915     916     917     918     913     914     915
     914     915     915     916     917     918     919     920     935     916
     917     918     919     920     921     935     936     937     941     917
     918     919     920     935     918     919     920     935     919     920
     921     922     923     935     936     937     938     939     941     942
     920     921     935     936     937     941     921     922     923     924
     933     935     936     937     938     939     941     922     923     924
     925     926     932     933     934     935     936     937     938     939
     940     941     923     924     933     935     937     938     939     924
     925     926     927     928     932     933     934     935     937     938
     939     925     926     927     928     929     932     933     934     937
     926     927     928     933     927     928     929     930     931     932
     933     928     929     932     929     930     931     932     933     934
     930     931     932     933     931     932     932     933     934     934
     937       0     936     937     938     939     940     941     942     937
     938     939     941     942     938     939     940     941     942     939
     940     941     940     941       0     942       0
%FLAG HBOND_ACOEF                                                               
%FORMAT(5E16.8)                                                                 

%FLAG HBOND_BCOEF                                                               
%FORMAT(5E16.8)                                                                 

%FLAG HBCUT                                                                     
%FORMAT(5E16.8)                                                                 

%FLAG AMBER_ATOM_TYPE                                                           
%FORMAT(20a4)                                                                   
HO  OH  CJ  H1  H1  CT  H1  OS  CT  H2  N*  CK  H5  NB  CB  C   O   NA  H   CA  
N2  H   H   NC  CB  C7  H1  CT  HC  HC  OS  P   O2  O2  OS  CJ  H1  H1  CT  H1  
OS  CT  H2  N*  CK  H5  NB  CB  C   O   NA  H   CA  N2  H   H   NC  CB  C7  H1  
CT  HC  HC  OS  P   O2  O2  OS  CJ  H1  H1  CT  H1  OS  CT  H2  N*  C2  H5  NB  
CB  CA  N2  H   H   NC  CQ  H5  NC  CB  C7  H1  CT  HC  HC  OS  P   O2  O2  OS  
CJ  H1  H1  CT  H1  OS  CT  H2  N*  CK  H5  NB  CB  C   O   NA  H   CA  N2  H   
H   NC  CB  C7  H1  CT  HC  HC  OS  P   O2  O2  OS  CJ  H1  H1  CT  H1  OS  CT  
H2  N*  C2  H5  NB  CB  CA  N2  H   H   NC  CQ  H5  NC  CB  C7  H1  CT  HC  HC  
OS  P   O2  O2  OS  CJ  H1  H1  CT  H1  OS  CT  H2  N*  CK  H5  NB  CB  C   O   
NA  H   CA  N2  H   H   NC  CB  C7  H1  CT  HC  HC  OS  P   O2  O2  OS  CJ  H1  
H1  CT  H1  OS  CT  H2  N*  CK  H5  NB  CB  C   O   NA  H   CA  N2  H   H   NC  
CB  C7  H1  CT  HC  HC  OS  P   O2  O2  OS  CJ  H1  H1  CT  H1  OS  CT  H2  N*  
C2  H5  NB  CB  CA  N2  H   H   NC  CQ  H5  NC  CB  C7  H1  CT  HC  HC  OS  P   
O2  O2  OS  CJ  H1  H1  CT  H1  OS  CT  H2  N*  C2  H5  NB  CB  CA  N2  H   H   
NC  CQ  H5  NC  CB  C7  H1  CT  HC  HC  OS  P   O2  O2  OS  CJ  H1  H1  CT  H1  
OS  CT  H2  N*  CK  H5  NB  CB  C   O   NA  H   CA  N2  H   H   NC  CB  C7  H1  
CT  HC  HC  OS  P   O2  O2  OS  CJ  H1  H1  CT  H1  OS  CT  H2  N*  C2  H5  NB  
CB  CA  N2  H   H   NC  CQ  H5  NC  CB  C7  H1  CT  HC  HC  OS  P   O2  O2  OS  
CJ  H1  H1  CT  H1  OS  CT  H2  N*  CK  H5  NB  CB  C   O   NA  H   CA  N2  H   
H   NC  CB  C7  H1  CT  HC  HC  OS  P   O2  O2  OS  CJ  H1  H1  CT  H1  OS  CT  
H2  N*  C2  H5  NB  CB  CA  N2  H   H   NC  CQ  H5  NC  CB  C7  H1  CT  HC  HC  
OS  P   O2  O2  OS  CJ  H1  H1  CT  H1  OS  CT  H2  N*  C2  H5  NB  CB  CA  N2  
H   H   NC  CQ  H5  NC  CB  C7  H1  CT  HC  HC  OS  P   O2  O2  OS  CJ  H1  H1  
CT  H1  OS  CT  H2  N*  C2  H5  NB  CB  CA  N2  H   H   NC  CQ  H5  NC  CB  C7  
H1  CT  HC  HC  OH  HO  HO  OH  CI  H1  H1  CT  H1  OS  CT  H2  N*  CS  H4  CS  
HA  C   O   NA  H   C   O   CT  H1  CT  H1  OH  HO  OS  P   O2  O2  OS  CI  H1  
H1  CT  H1  OS  CT  H2  N*  CS  H4  CS  HA  C   O   NA  H   C   O   CT  H1  CT  
H1  OH  HO  OS  P   O2  O2  OS  CI  H1  H1  CT  H1  OS  CT  H2  N*  CS  H4  CS  
HA  C   O   NA  H   C   O   CT  H1  CT  H1  OH  HO  OS  P   O2  O2  OS  CI  H1  
H1  CT  H1  OS  CT  H2  N*  C4  H4  C4  HA  CA  N2  H   H   NC  C   O   CT  H1  
CT  H1  OH  HO  OS  P   O2  O2  OS  CI  H1  H1  CT  H1  OS  CT  H2  N*  CS  H4  
CS  HA  C   O   NA  H   C   O   CT  H1  CT  H1  OH  HO  OS  P   O2  O2  OS  CI  
H1  H1  CT  H1  OS  CT  H2  N*  C4  H4  C4  HA  CA  N2  H   H   NC  C   O   CT  
H1  CT  H1  OH  HO  OS  P   O2  O2  OS  CI  H1  H1  CT  H1  OS  CT  H2  N*  CS  
H4  CS  HA  C   O   NA  H   C   O   CT  H1  CT  H1  OH  HO  OS  P   O2  O2  OS  
CI  H1  H1  CT  H1  OS  CT  H2  N*  CS  H4  CS  HA  C   O   NA  H   C   O   CT  
H1  CT  H1  OH  HO  OS  P   O2  O2  OS  CI  H1  H1  CT  H1  OS  CT  H2  N*  C4  
H4  C4  HA  CA  N2  H   H   NC  C   O   CT  H1  CT  H1  OH  HO  OS  P   O2  O2  
OS  CI  H1  H1  CT  H1  OS  CT  H2  N*  C4  H4  C4  HA  CA  N2  H   H   NC  C   
O   CT  H1  CT  H1  OH  HO  OS  P   O2  O2  OS  CI  H1  H1  CT  H1  OS  CT  H2  
N*  CS  H4  CS  HA  C   O   NA  H   C   O   CT  H1  CT  H1  OH  HO  OS  P   O2  
O2  OS  CI  H1  H1  CT  H1  OS  CT  H2  N*  C4  H4  C4  HA  CA  N2  H   H   NC  
C   O   CT  H1  CT  H1  OH  HO  OS  P   O2  O2  OS  CI  H1  H1  CT  H1  OS  CT  
H2  N*  CS  H4  CS  HA  C   O   NA  H   C   O   CT  H1  CT  H1  OH  HO  OS  P   
O2  O2  OS  CI  H1  H1  CT  H1  OS  CT  H2  N*  C4  H4  C4  HA  CA  N2  H   H   
NC  C   O   CT  H1  CT  H1  OH  HO  OS  P   O2  O2  OS  CI  H1  H1  CT  H1  OS  
CT  H2  N*  C4  H4  C4  HA  CA  N2  H   H   NC  C   O   CT  H1  CT  H1  OH  HO  
OH  HO  
%FLAG TREE_CHAIN_CLASSIFICATION                                                 
%FORMAT(20a4)                                                                   
M   M   M   E   E   M   E   S   3   E   B   S   E   E   B   B   E   B   E   S   
B   E   E   E   B   M   E   B   E   E   M   M   E   E   M   M   E   E   M   E   
S   3   E   B   S   E   E   B   B   E   B   E   S   B   E   E   E   B   M   E   
B   E   E   M   M   E   E   M   M   E   E   M   E   S   3   E   B   S   E   E   
B   B   B   E   E   S   S   E   E   B   M   E   B   E   E   M   M   E   E   M   
M   E   E   M   E   S   3   E   B   S   E   E   B   B   E   B   E   S   B   E   
E   E   B   M   E   B   E   E   M   M   E   E   M   M   E   E   M   E   S   3   
E   B   S   E   E   B   B   B   E   E   S   S   E   E   B   M   E   B   E   E   
M   M   E   E   M   M   E   E   M   E   S   3   E   B   S   E   E   B   B   E   
B   E   S   B   E   E   E   B   M   E   B   E   E   M   M   E   E   M   M   E   
E   M   E   S   3   E   B   S   E   E   B   B   E   B   E   S   B   E   E   E   
B   M   E   B   E   E   M   M   E   E   M   M   E   E   M   E   S   3   E   B   
S   E   E   B   B   B   E   E   S   S   E   E   B   M   E   B   E   E   M   M   
E   E   M   M   E   E   M   E   S   3   E   B   S   E   E   B   B   B   E   E   
S   S   E   E   B   M   E   B   E   E   M   M   E   E   M   M   E   E   M   E   
S   3   E   B   S   E   E   B   B   E   B   E   S   B   E   E   E   B   M   E   
B   E   E   M   M   E   E   M   M   E   E   M   E   S   3   E   B   S   E   E   
B   B   B   E   E   S   S   E   E   B   M   E   B   E   E   M   M   E   E   M   
M   E   E   M   E   S   3   E   B   S   E   E   B   B   E   B   E   S   B   E   
E   E   B   M   E   B   E   E   M   M   E   E   M   M   E   E   M   E   S   3   
E   B   S   E   E   B   B   B   E   E   S   S   E   E   B   M   E   B   E   E   
M   M   E   E   M   M   E   E   M   E   S   3   E   B   S   E   E   B   B   B   
E   E   S   S   E   E   B   M   E   B   E   E   M   M   E   E   M   M   E   E   
M   E   S   3   E   B   S   E   E   B   B   B   E   E   S   S   E   E   B   M   
E   B   E   E   M   M   M   M   M   E   E   M   E   S   3   E   B   S   E   S   
E   B   E   B   E   B   E   M   E   B   E   S   E   M   M   E   E   M   M   E   
E   M   E   S   3   E   B   S   E   S   E   B   E   B   E   B   E   M   E   B   
E   S   E   M   M   E   E   M   M   E   E   M   E   S   3   E   B   S   E   S   
E   B   E   B   E   B   E   M   E   B   E   S   E   M   M   E   E   M   M   E   
E   M   E   S   3   E   B   S   E   S   E   B   B   E   E   S   B   E   M   E   
B   E   S   E   M   M   E   E   M   M   E   E   M   E   S   3   E   B   S   E   
S   E   B   E   B   E   B   E   M   E   B   E   S   E   M   M   E   E   M   M   
E   E   M   E   S   3   E   B   S   E   S   E   B   B   E   E   S   B   E   M   
E   B   E   S   E   M   M   E   E   M   M   E   E   M   E   S   3   E   B   S   
E   S   E   B   E   B   E   B   E   M   E   B   E   S   E   M   M   E   E   M   
M   E   E   M   E   S   3   E   B   S   E   S   E   B   E   B   E   B   E   M   
E   B   E   S   E   M   M   E   E   M   M   E   E   M   E   S   3   E   B   S   
E   S   E   B   B   E   E   S   B   E   M   E   B   E   S   E   M   M   E   E   
M   M   E   E   M   E   S   3   E   B   S   E   S   E   B   B   E   E   S   B   
E   M   E   B   E   S   E   M   M   E   E   M   M   E   E   M   E   S   3   E   
B   S   E   S   E   B   E   B   E   B   E   M   E   B   E   S   E   M   M   E   
E   M   M   E   E   M   E   S   3   E   B   S   E   S   E   B   B   E   E   S   
B   E   M   E   B   E   S   E   M   M   E   E   M   M   E   E   M   E   S   3   
E   B   S   E   S   E   B   E   B   E   B   E   M   E   B   E   S   E   M   M   
E   E   M   M   E   E   M   E   S   3   E   B   S   E   S   E   B   B   E   E   
S   B   E   M   E   B   E   S   E   M   M   E   E   M   M   E   E   M   E   S   
3   E   B   S   E   S   E   B   B   E   E   S   B   E   M   E   B   E   S   E   
M   M   
%FLAG JOIN_ARRAY                                                                
%FORMAT(10I8)                                                                   
       0       0       0       0       0       0       0       0       0       0
       0       0       0       0       0       0       0       0       0       0
       0       0       0       0       0       0       0       0       0       0
       0       0       0       0       0       0       0       0       0       0
       0       0       0       0       0       0       0       0       0       0
       0       0       0       0       0       0       0       0       0       0
       0       0       0       0       0       0       0       0       0       0
       0       0       0       0       0       0       0       0       0       0
       0       0       0       0       0       0       0       0       0       0
       0       0       0       0       0       0       0       0       0       0
       0       0       0       0       0       0       0       0       0       0
       0       0       0       0       0       0       0       0       0       0
       0       0       0       0       0       0       0       0       0       0
       0       0       0       0       0       0       0       0       0       0
       0       0       0       0       0       0       0       0       0       0
       0       0       0       0       0       0       0       0       0       0
       0       0       0       0       0       0       0       0       0       0
       0       0       0       0       0       0       0       0       0       0
       0       0       0       0       0       0       0       0       0       0
       0       0       0       0       0       0       0       0       0       0
       0       0       0       0       0       0       0       0       0       0
       0       0       0       0       0       0       0       0       0       0
       0       0       0       0       0       0       0       0       0       0
       0       0       0       0       0       0       0       0       0       0
       0       0       0       0       0       0       0       0       0       0
       0       0       0       0       0       0       0       0       0       0
       0       0       0       0       0       0       0       0       0       0
       0       0       0       0       0       0       0       0       0       0
       0       0       0       0       0       0       0       0       0       0
       0       0       0       0       0       0       0       0       0       0
       0       0       0       0       0       0       0       0       0       0
       0       0       0       0       0       0       0       0       0       0
       0       0       0       0       0       0       0       0       0       0
       0       0       0       0       0       0       0       0       0       0
       0       0       0       0       0       0       0       0       0       0
       0       0       0       0       0       0       0       0       0       0
       0       0       0       0       0       0       0       0       0       0
       0       0       0       0       0       0       0       0       0       0
       0       0       0       0       0       0       0       0       0       0
       0       0       0       0       0       0       0       0       0       0
       0       0       0       0       0       0       0       0       0       0
       0       0       0       0       0       0       0       0       0       0
       0       0       0       0       0       0       0       0       0       0
       0       0       0       0       0       0       0       0       0       0
       0       0       0       0       0       0       0       0       0       0
       0       0       0       0       0       0       0       0       0       0
       0       0       0       0       0       0       0       0       0       0
       0       0       0       0       0       0       0       0       0       0
       0       0       0       0       0       0       0       0       0       0
       0       0       0       0       0       0       0       0       0       0
       0       0       0       0       0       0       0       0       0       0
       0       0       0       0       0       0       0       0       0       0
       0       0       0       0       0       0       0       0       0       0
       0       0       0       0       0       0       0       0       0       0
       0       0       0       0       0       0       0       0       0       0
       0       0       0       0       0       0       0       0       0       0
       0       0       0       0       0       0       0       0       0       0
       0       0       0       0       0       0       0       0       0       0
       0       0       0       0       0       0       0       0       0       0
       0       0       0       0       0       0       0       0       0       0
       0       0       0       0       0       0       0       0       0       0
       0       0       0       0       0       0       0       0       0       0
       0       0       0       0       0       0       0       0       0       0
       0       0       0       0       0       0       0       0       0       0
       0       0       0       0       0       0       0       0       0       0
       0       0       0       0       0       0       0       0       0       0
       0       0       0       0       0       0       0       0       0       0
       0       0       0       0       0       0       0       0       0       0
       0       0       0       0       0       0       0       0       0       0
       0       0       0       0       0       0       0       0       0       0
       0       0       0       0       0       0       0       0       0       0
       0       0       0       0       0       0       0       0       0       0
       0       0       0       0       0       0       0       0       0       0
       0       0       0       0       0       0       0       0       0       0
       0       0       0       0       0       0       0       0       0       0
       0       0       0       0       0       0       0       0       0       0
       0       0       0       0       0       0       0       0       0       0
       0       0       0       0       0       0       0       0       0       0
       0       0       0       0       0       0       0       0       0       0
       0       0       0       0       0       0       0       0       0       0
       0       0       0       0       0       0       0       0       0       0
       0       0       0       0       0       0       0       0       0       0
       0       0       0       0       0       0       0       0       0       0
       0       0       0       0       0       0       0       0       0       0
       0       0       0       0       0       0       0       0       0       0
       0       0       0       0       0       0       0       0       0       0
       0       0       0       0       0       0       0       0       0       0
       0       0       0       0       0       0       0       0       0       0
       0       0       0       0       0       0       0       0       0       0
       0       0       0       0       0       0       0       0       0       0
       0       0       0       0       0       0       0       0       0       0
       0       0       0       0       0       0       0       0       0       0
       0       0       0       0       0       0       0       0       0       0
       0       0       0       0       0       0       0       0       0       0
       0       0
%FLAG IROTAT                                                                    
%FORMAT(10I8)                                                                   
       0       0       0       0       0       0       0       0       0       0
       0       0       0       0       0       0       0       0       0       0
       0       0       0       0       0       0       0       0       0       0
       0       0       0       0       0       0       0       0       0       0
       0       0       0       0       0       0       0       0       0       0
       0       0       0       0       0       0       0       0       0       0
       0       0       0       0       0       0       0       0       0       0
       0       0       0       0       0       0       0       0       0       0
       0       0       0       0       0       0       0       0       0       0
       0       0       0       0       0       0       0       0       0       0
       0       0       0       0       0       0       0       0       0       0
       0       0       0       0       0       0       0       0       0       0
       0       0       0       0       0       0       0       0       0       0
       0       0       0       0       0       0       0       0       0       0
       0       0       0       0       0       0       0       0       0       0
       0       0       0       0       0       0       0       0       0       0
       0       0       0       0       0       0       0       0       0       0
       0       0       0       0       0       0       0       0       0       0
       0       0       0       0       0       0       0       0       0       0
       0       0       0       0       0       0       0       0       0       0
       0       0       0       0       0       0       0       0       0       0
       0       0       0       0       0       0       0       0       0       0
       0       0       0       0       0       0       0       0       0       0
       0       0       0       0       0       0       0       0       0       0
       0       0       0       0       0       0       0       0       0       0
       0       0       0       0       0       0       0       0       0       0
       0       0       0       0       0       0       0       0       0       0
       0       0       0       0       0       0       0       0       0       0
       0       0       0       0       0       0       0       0       0       0
       0       0       0       0       0       0       0       0       0       0
       0       0       0       0       0       0       0       0       0       0
       0       0       0       0       0       0       0       0       0       0
       0       0       0       0       0       0       0       0       0       0
       0       0       0       0       0       0       0       0       0       0
       0       0       0       0       0       0       0       0       0       0
       0       0       0       0       0       0       0       0       0       0
       0       0       0       0       0       0       0       0       0       0
       0       0       0       0       0       0       0       0       0       0
       0       0       0       0       0       0       0       0       0       0
       0       0       0       0       0       0       0       0       0       0
       0       0       0       0       0       0       0       0       0       0
       0       0       0       0       0       0       0       0       0       0
       0       0       0       0       0       0       0       0       0       0
       0       0       0       0       0       0       0       0       0       0
       0       0       0       0       0       0       0       0       0       0
       0       0       0       0       0       0       0       0       0       0
       0       0       0       0       0       0       0       0       0       0
       0       0       0       0       0       0       0       0       0       0
       0       0       0       0       0       0       0       0       0       0
       0       0       0       0       0       0       0       0       0       0
       0       0       0       0       0       0       0       0       0       0
       0       0       0       0       0       0       0       0       0       0
       0       0       0       0       0       0       0       0       0       0
       0       0       0       0       0       0       0       0       0       0
       0       0       0       0       0       0       0       0       0       0
       0       0       0       0       0       0       0       0       0       0
       0       0       0       0       0       0       0       0       0       0
       0       0       0       0       0       0       0       0       0       0
       0       0       0       0       0       0       0       0       0       0
       0       0       0       0       0       0       0       0       0       0
       0       0       0       0       0       0       0       0       0       0
       0       0       0       0       0       0       0       0       0       0
       0       0       0       0       0       0       0       0       0       0
       0       0       0       0       0       0       0       0       0       0
       0       0       0       0       0       0       0       0       0       0
       0       0       0       0       0       0       0       0       0       0
       0       0       0       0       0       0       0       0       0       0
       0       0       0       0       0       0       0       0       0       0
       0       0       0       0       0       0       0       0       0       0
       0       0       0       0       0       0       0       0       0       0
       0       0       0       0       0       0       0       0       0       0
       0       0       0       0       0       0       0       0       0       0
       0       0       0       0       0       0       0       0       0       0
       0       0       0       0       0       0       0       0       0       0
       0       0       0       0       0       0       0       0       0       0
       0       0       0       0       0       0       0       0       0       0
       0       0       0       0       0       0       0       0       0       0
       0       0       0       0       0       0       0       0       0       0
       0       0       0       0       0       0       0       0       0       0
       0       0       0       0       0       0       0       0       0       0
       0       0       0       0       0       0       0       0       0       0
       0       0       0       0       0       0       0       0       0       0
       0       0       0       0       0       0       0       0       0       0
       0       0       0       0       0       0       0       0       0       0
       0       0       0       0       0       0       0       0       0       0
       0       0       0       0       0       0       0       0       0       0
       0       0       0       0       0       0       0       0       0       0
       0       0       0       0       0       0       0       0       0       0
       0       0       0       0       0       0       0       0       0       0
       0       0       0       0       0       0       0       0       0       0
       0       0       0       0       0       0       0       0       0       0
       0       0       0       0       0       0       0       0       0       0
       0       0       0       0       0       0       0       0       0       0
       0       0       0       0       0       0       0       0       0       0
       0       0
%FLAG RADIUS_SET                                                                
%FORMAT(1a80)                                                                   
modified Bondi radii (mbondi)                                                   
%FLAG RADII                                                                     
%FORMAT(5E16.8)                                                                 
  8.00000000E-01  1.50000000E+00  1.70000000E+00  1.30000000E+00  1.30000000E+00
  1.70000000E+00  1.30000000E+00  1.50000000E+00  1.70000000E+00  1.30000000E+00
  1.55000000E+00  1.70000000E+00  1.30000000E+00  1.55000000E+00  1.70000000E+00
  1.70000000E+00  1.50000000E+00  1.55000000E+00  1.30000000E+00  1.70000000E+00
  1.55000000E+00  1.30000000E+00  1.30000000E+00  1.55000000E+00  1.70000000E+00
  1.70000000E+00  1.30000000E+00  1.70000000E+00  1.30000000E+00  1.30000000E+00
  1.50000000E+00  1.85000000E+00  1.50000000E+00  1.50000000E+00  1.50000000E+00
  1.70000000E+00  1.30000000E+00  1.30000000E+00  1.70000000E+00  1.30000000E+00
  1.50000000E+00  1.70000000E+00  1.30000000E+00  1.55000000E+00  1.70000000E+00
  1.30000000E+00  1.55000000E+00  1.70000000E+00  1.70000000E+00  1.50000000E+00
  1.55000000E+00  1.30000000E+00  1.70000000E+00  1.55000000E+00  1.30000000E+00
  1.30000000E+00  1.55000000E+00  1.70000000E+00  1.70000000E+00  1.30000000E+00
  1.70000000E+00  1.30000000E+00  1.30000000E+00  1.50000000E+00  1.85000000E+00
  1.50000000E+00  1.50000000E+00  1.50000000E+00  1.70000000E+00  1.30000000E+00
  1.30000000E+00  1.70000000E+00  1.30000000E+00  1.50000000E+00  1.70000000E+00
  1.30000000E+00  1.55000000E+00  1.70000000E+00  1.30000000E+00  1.55000000E+00
  1.70000000E+00  1.70000000E+00  1.55000000E+00  1.30000000E+00  1.30000000E+00
  1.55000000E+00  1.70000000E+00  1.30000000E+00  1.55000000E+00  1.70000000E+00
  1.70000000E+00  1.30000000E+00  1.70000000E+00  1.30000000E+00  1.30000000E+00
  1.50000000E+00  1.85000000E+00  1.50000000E+00  1.50000000E+00  1.50000000E+00
  1.70000000E+00  1.30000000E+00  1.30000000E+00  1.70000000E+00  1.30000000E+00
  1.50000000E+00  1.70000000E+00  1.30000000E+00  1.55000000E+00  1.70000000E+00
  1.30000000E+00  1.55000000E+00  1.70000000E+00  1.70000000E+00  1.50000000E+00
  1.55000000E+00  1.30000000E+00  1.70000000E+00  1.55000000E+00  1.30000000E+00
  1.30000000E+00  1.55000000E+00  1.70000000E+00  1.70000000E+00  1.30000000E+00
  1.70000000E+00  1.30000000E+00  1.30000000E+00  1.50000000E+00  1.85000000E+00
  1.50000000E+00  1.50000000E+00  1.50000000E+00  1.70000000E+00  1.30000000E+00
  1.30000000E+00  1.70000000E+00  1.30000000E+00  1.50000000E+00  1.70000000E+00
  1.30000000E+00  1.55000000E+00  1.70000000E+00  1.30000000E+00  1.55000000E+00
  1.70000000E+00  1.70000000E+00  1.55000000E+00  1.30000000E+00  1.30000000E+00
  1.55000000E+00  1.70000000E+00  1.30000000E+00  1.55000000E+00  1.70000000E+00
  1.70000000E+00  1.30000000E+00  1.70000000E+00  1.30000000E+00  1.30000000E+00
  1.50000000E+00  1.85000000E+00  1.50000000E+00  1.50000000E+00  1.50000000E+00
  1.70000000E+00  1.30000000E+00  1.30000000E+00  1.70000000E+00  1.30000000E+00
  1.50000000E+00  1.70000000E+00  1.30000000E+00  1.55000000E+00  1.70000000E+00
  1.30000000E+00  1.55000000E+00  1.70000000E+00  1.70000000E+00  1.50000000E+00
  1.55000000E+00  1.30000000E+00  1.70000000E+00  1.55000000E+00  1.30000000E+00
  1.30000000E+00  1.55000000E+00  1.70000000E+00  1.70000000E+00  1.30000000E+00
  1.70000000E+00  1.30000000E+00  1.30000000E+00  1.50000000E+00  1.85000000E+00
  1.50000000E+00  1.50000000E+00  1.50000000E+00  1.70000000E+00  1.30000000E+00
  1.30000000E+00  1.70000000E+00  1.30000000E+00  1.50000000E+00  1.70000000E+00
  1.30000000E+00  1.55000000E+00  1.70000000E+00  1.30000000E+00  1.55000000E+00
  1.70000000E+00  1.70000000E+00  1.50000000E+00  1.55000000E+00  1.30000000E+00
  1.70000000E+00  1.55000000E+00  1.30000000E+00  1.30000000E+00  1.55000000E+00
  1.70000000E+00  1.70000000E+00  1.30000000E+00  1.70000000E+00  1.30000000E+00
  1.30000000E+00  1.50000000E+00  1.85000000E+00  1.50000000E+00  1.50000000E+00
  1.50000000E+00  1.70000000E+00  1.30000000E+00  1.30000000E+00  1.70000000E+00
  1.30000000E+00  1.50000000E+00  1.70000000E+00  1.30000000E+00  1.55000000E+00
  1.70000000E+00  1.30000000E+00  1.55000000E+00  1.70000000E+00  1.70000000E+00
  1.55000000E+00  1.30000000E+00  1.30000000E+00  1.55000000E+00  1.70000000E+00
  1.30000000E+00  1.55000000E+00  1.70000000E+00  1.70000000E+00  1.30000000E+00
  1.70000000E+00  1.30000000E+00  1.30000000E+00  1.50000000E+00  1.85000000E+00
  1.50000000E+00  1.50000000E+00  1.50000000E+00  1.70000000E+00  1.30000000E+00
  1.30000000E+00  1.70000000E+00  1.30000000E+00  1.50000000E+00  1.70000000E+00
  1.30000000E+00  1.55000000E+00  1.70000000E+00  1.30000000E+00  1.55000000E+00
  1.70000000E+00  1.70000000E+00  1.55000000E+00  1.30000000E+00  1.30000000E+00
  1.55000000E+00  1.70000000E+00  1.30000000E+00  1.55000000E+00  1.70000000E+00
  1.70000000E+00  1.30000000E+00  1.70000000E+00  1.30000000E+00  1.30000000E+00
  1.50000000E+00  1.85000000E+00  1.50000000E+00  1.50000000E+00  1.50000000E+00
  1.70000000E+00  1.30000000E+00  1.30000000E+00  1.70000000E+00  1.30000000E+00
  1.50000000E+00  1.70000000E+00  1.30000000E+00  1.55000000E+00  1.70000000E+00
  1.30000000E+00  1.55000000E+00  1.70000000E+00  1.70000000E+00  1.50000000E+00
  1.55000000E+00  1.30000000E+00  1.70000000E+00  1.55000000E+00  1.30000000E+00
  1.30000000E+00  1.55000000E+00  1.70000000E+00  1.70000000E+00  1.30000000E+00
  1.70000000E+00  1.30000000E+00  1.30000000E+00  1.50000000E+00  1.85000000E+00
  1.50000000E+00  1.50000000E+00  1.50000000E+00  1.70000000E+00  1.30000000E+00
  1.30000000E+00  1.70000000E+00  1.30000000E+00  1.50000000E+00  1.70000000E+00
  1.30000000E+00  1.55000000E+00  1.70000000E+00  1.30000000E+00  1.55000000E+00
  1.70000000E+00  1.70000000E+00  1.55000000E+00  1.30000000E+00  1.30000000E+00
  1.55000000E+00  1.70000000E+00  1.30000000E+00  1.55000000E+00  1.70000000E+00
  1.70000000E+00  1.30000000E+00  1.70000000E+00  1.30000000E+00  1.30000000E+00
  1.50000000E+00  1.85000000E+00  1.50000000E+00  1.50000000E+00  1.50000000E+00
  1.70000000E+00  1.30000000E+00  1.30000000E+00  1.70000000E+00  1.30000000E+00
  1.50000000E+00  1.70000000E+00  1.30000000E+00  1.55000000E+00  1.70000000E+00
  1.30000000E+00  1.55000000E+00  1.70000000E+00  1.70000000E+00  1.50000000E+00
  1.55000000E+00  1.30000000E+00  1.70000000E+00  1.55000000E+00  1.30000000E+00
  1.30000000E+00  1.55000000E+00  1.70000000E+00  1.70000000E+00  1.30000000E+00
  1.70000000E+00  1.30000000E+00  1.30000000E+00  1.50000000E+00  1.85000000E+00
  1.50000000E+00  1.50000000E+00  1.50000000E+00  1.70000000E+00  1.30000000E+00
  1.30000000E+00  1.70000000E+00  1.30000000E+00  1.50000000E+00  1.70000000E+00
  1.30000000E+00  1.55000000E+00  1.70000000E+00  1.30000000E+00  1.55000000E+00
  1.70000000E+00  1.70000000E+00  1.55000000E+00  1.30000000E+00  1.30000000E+00
  1.55000000E+00  1.70000000E+00  1.30000000E+00  1.55000000E+00  1.70000000E+00
  1.70000000E+00  1.30000000E+00  1.70000000E+00  1.30000000E+00  1.30000000E+00
  1.50000000E+00  1.85000000E+00  1.50000000E+00  1.50000000E+00  1.50000000E+00
  1.70000000E+00  1.30000000E+00  1.30000000E+00  1.70000000E+00  1.30000000E+00
  1.50000000E+00  1.70000000E+00  1.30000000E+00  1.55000000E+00  1.70000000E+00
  1.30000000E+00  1.55000000E+00  1.70000000E+00  1.70000000E+00  1.55000000E+00
  1.30000000E+00  1.30000000E+00  1.55000000E+00  1.70000000E+00  1.30000000E+00
  1.55000000E+00  1.70000000E+00  1.70000000E+00  1.30000000E+00  1.70000000E+00
  1.30000000E+00  1.30000000E+00  1.50000000E+00  1.85000000E+00  1.50000000E+00
  1.50000000E+00  1.50000000E+00  1.70000000E+00  1.30000000E+00  1.30000000E+00
  1.70000000E+00  1.30000000E+00  1.50000000E+00  1.70000000E+00  1.30000000E+00
  1.55000000E+00  1.70000000E+00  1.30000000E+00  1.55000000E+00  1.70000000E+00
  1.70000000E+00  1.55000000E+00  1.30000000E+00  1.30000000E+00  1.55000000E+00
  1.70000000E+00  1.30000000E+00  1.55000000E+00  1.70000000E+00  1.70000000E+00
  1.30000000E+00  1.70000000E+00  1.30000000E+00  1.30000000E+00  1.50000000E+00
  8.00000000E-01  8.00000000E-01  1.50000000E+00  1.70000000E+00  1.30000000E+00
  1.30000000E+00  1.70000000E+00  1.30000000E+00  1.50000000E+00  1.70000000E+00
  1.30000000E+00  1.55000000E+00  1.70000000E+00  1.30000000E+00  1.70000000E+00
  1.30000000E+00  1.70000000E+00  1.50000000E+00  1.55000000E+00  1.30000000E+00
  1.70000000E+00  1.50000000E+00  1.70000000E+00  1.30000000E+00  1.70000000E+00
  1.30000000E+00  1.50000000E+00  8.00000000E-01  1.50000000E+00  1.85000000E+00
  1.50000000E+00  1.50000000E+00  1.50000000E+00  1.70000000E+00  1.30000000E+00
  1.30000000E+00  1.70000000E+00  1.30000000E+00  1.50000000E+00  1.70000000E+00
  1.30000000E+00  1.55000000E+00  1.70000000E+00  1.30000000E+00  1.70000000E+00
  1.30000000E+00  1.70000000E+00  1.50000000E+00  1.55000000E+00  1.30000000E+00
  1.70000000E+00  1.50000000E+00  1.70000000E+00  1.30000000E+00  1.70000000E+00
  1.30000000E+00  1.50000000E+00  8.00000000E-01  1.50000000E+00  1.85000000E+00
  1.50000000E+00  1.50000000E+00  1.50000000E+00  1.70000000E+00  1.30000000E+00
  1.30000000E+00  1.70000000E+00  1.30000000E+00  1.50000000E+00  1.70000000E+00
  1.30000000E+00  1.55000000E+00  1.70000000E+00  1.30000000E+00  1.70000000E+00
  1.30000000E+00  1.70000000E+00  1.50000000E+00  1.55000000E+00  1.30000000E+00
  1.70000000E+00  1.50000000E+00  1.70000000E+00  1.30000000E+00  1.70000000E+00
  1.30000000E+00  1.50000000E+00  8.00000000E-01  1.50000000E+00  1.85000000E+00
  1.50000000E+00  1.50000000E+00  1.50000000E+00  1.70000000E+00  1.30000000E+00
  1.30000000E+00  1.70000000E+00  1.30000000E+00  1.50000000E+00  1.70000000E+00
  1.30000000E+00  1.55000000E+00  1.70000000E+00  1.30000000E+00  1.70000000E+00
  1.30000000E+00  1.70000000E+00  1.55000000E+00  1.30000000E+00  1.30000000E+00
  1.55000000E+00  1.70000000E+00  1.50000000E+00  1.70000000E+00  1.30000000E+00
  1.70000000E+00  1.30000000E+00  1.50000000E+00  8.00000000E-01  1.50000000E+00
  1.85000000E+00  1.50000000E+00  1.50000000E+00  1.50000000E+00  1.70000000E+00
  1.30000000E+00  1.30000000E+00  1.70000000E+00  1.30000000E+00  1.50000000E+00
  1.70000000E+00  1.30000000E+00  1.55000000E+00  1.70000000E+00  1.30000000E+00
  1.70000000E+00  1.30000000E+00  1.70000000E+00  1.50000000E+00  1.55000000E+00
  1.30000000E+00  1.70000000E+00  1.50000000E+00  1.70000000E+00  1.30000000E+00
  1.70000000E+00  1.30000000E+00  1.50000000E+00  8.00000000E-01  1.50000000E+00
  1.85000000E+00  1.50000000E+00  1.50000000E+00  1.50000000E+00  1.70000000E+00
  1.30000000E+00  1.30000000E+00  1.70000000E+00  1.30000000E+00  1.50000000E+00
  1.70000000E+00  1.30000000E+00  1.55000000E+00  1.70000000E+00  1.30000000E+00
  1.70000000E+00  1.30000000E+00  1.70000000E+00  1.55000000E+00  1.30000000E+00
  1.30000000E+00  1.55000000E+00  1.70000000E+00  1.50000000E+00  1.70000000E+00
  1.30000000E+00  1.70000000E+00  1.30000000E+00  1.50000000E+00  8.00000000E-01
  1.50000000E+00  1.85000000E+00  1.50000000E+00  1.50000000E+00  1.50000000E+00
  1.70000000E+00  1.30000000E+00  1.30000000E+00  1.70000000E+00  1.30000000E+00
  1.50000000E+00  1.70000000E+00  1.30000000E+00  1.55000000E+00  1.70000000E+00
  1.30000000E+00  1.70000000E+00  1.30000000E+00  1.70000000E+00  1.50000000E+00
  1.55000000E+00  1.30000000E+00  1.70000000E+00  1.50000000E+00  1.70000000E+00
  1.30000000E+00  1.70000000E+00  1.30000000E+00  1.50000000E+00  8.00000000E-01
  1.50000000E+00  1.85000000E+00  1.50000000E+00  1.50000000E+00  1.50000000E+00
  1.70000000E+00  1.30000000E+00  1.30000000E+00  1.70000000E+00  1.30000000E+00
  1.50000000E+00  1.70000000E+00  1.30000000E+00  1.55000000E+00  1.70000000E+00
  1.30000000E+00  1.70000000E+00  1.30000000E+00  1.70000000E+00  1.50000000E+00
  1.55000000E+00  1.30000000E+00  1.70000000E+00  1.50000000E+00  1.70000000E+00
  1.30000000E+00  1.70000000E+00  1.30000000E+00  1.50000000E+00  8.00000000E-01
  1.50000000E+00  1.85000000E+00  1.50000000E+00  1.50000000E+00  1.50000000E+00
  1.70000000E+00  1.30000000E+00  1.30000000E+00  1.70000000E+00  1.30000000E+00
  1.50000000E+00  1.70000000E+00  1.30000000E+00  1.55000000E+00  1.70000000E+00
  1.30000000E+00  1.70000000E+00  1.30000000E+00  1.70000000E+00  1.55000000E+00
  1.30000000E+00  1.30000000E+00  1.55000000E+00  1.70000000E+00  1.50000000E+00
  1.70000000E+00  1.30000000E+00  1.70000000E+00  1.30000000E+00  1.50000000E+00
  8.00000000E-01  1.50000000E+00  1.85000000E+00  1.50000000E+00  1.50000000E+00
  1.50000000E+00  1.70000000E+00  1.30000000E+00  1.30000000E+00  1.70000000E+00
  1.30000000E+00  1.50000000E+00  1.70000000E+00  1.30000000E+00  1.55000000E+00
  1.70000000E+00  1.30000000E+00  1.70000000E+00  1.30000000E+00  1.70000000E+00
  1.55000000E+00  1.30000000E+00  1.30000000E+00  1.55000000E+00  1.70000000E+00
  1.50000000E+00  1.70000000E+00  1.30000000E+00  1.70000000E+00  1.30000000E+00
  1.50000000E+00  8.00000000E-01  1.50000000E+00  1.85000000E+00  1.50000000E+00
  1.50000000E+00  1.50000000E+00  1.70000000E+00  1.30000000E+00  1.30000000E+00
  1.70000000E+00  1.30000000E+00  1.50000000E+00  1.70000000E+00  1.30000000E+00
  1.55000000E+00  1.70000000E+00  1.30000000E+00  1.70000000E+00  1.30000000E+00
  1.70000000E+00  1.50000000E+00  1.55000000E+00  1.30000000E+00  1.70000000E+00
  1.50000000E+00  1.70000000E+00  1.30000000E+00  1.70000000E+00  1.30000000E+00
  1.50000000E+00  8.00000000E-01  1.50000000E+00  1.85000000E+00  1.50000000E+00
  1.50000000E+00  1.50000000E+00  1.70000000E+00  1.30000000E+00  1.30000000E+00
  1.70000000E+00  1.30000000E+00  1.50000000E+00  1.70000000E+00  1.30000000E+00
  1.55000000E+00  1.70000000E+00  1.30000000E+00  1.70000000E+00  1.30000000E+00
  1.70000000E+00  1.55000000E+00  1.30000000E+00  1.30000000E+00  1.55000000E+00
  1.70000000E+00  1.50000000E+00  1.70000000E+00  1.30000000E+00  1.70000000E+00
  1.30000000E+00  1.50000000E+00  8.00000000E-01  1.50000000E+00  1.85000000E+00
  1.50000000E+00  1.50000000E+00  1.50000000E+00  1.70000000E+00  1.30000000E+00
  1.30000000E+00  1.70000000E+00  1.30000000E+00  1.50000000E+00  1.70000000E+00
  1.30000000E+00  1.55000000E+00  1.70000000E+00  1.30000000E+00  1.70000000E+00
  1.30000000E+00  1.70000000E+00  1.50000000E+00  1.55000000E+00  1.30000000E+00
  1.70000000E+00  1.50000000E+00  1.70000000E+00  1.30000000E+00  1.70000000E+00
  1.30000000E+00  1.50000000E+00  8.00000000E-01  1.50000000E+00  1.85000000E+00
  1.50000000E+00  1.50000000E+00  1.50000000E+00  1.70000000E+00  1.30000000E+00
  1.30000000E+00  1.70000000E+00  1.30000000E+00  1.50000000E+00  1.70000000E+00
  1.30000000E+00  1.55000000E+00  1.70000000E+00  1.30000000E+00  1.70000000E+00
  1.30000000E+00  1.70000000E+00  1.55000000E+00  1.30000000E+00  1.30000000E+00
  1.55000000E+00  1.70000000E+00  1.50000000E+00  1.70000000E+00  1.30000000E+00
  1.70000000E+00  1.30000000E+00  1.50000000E+00  8.00000000E-01  1.50000000E+00
  1.85000000E+00  1.50000000E+00  1.50000000E+00  1.50000000E+00  1.70000000E+00
  1.30000000E+00  1.30000000E+00  1.70000000E+00  1.30000000E+00  1.50000000E+00
  1.70000000E+00  1.30000000E+00  1.55000000E+00  1.70000000E+00  1.30000000E+00
  1.70000000E+00  1.30000000E+00  1.70000000E+00  1.55000000E+00  1.30000000E+00
  1.30000000E+00  1.55000000E+00  1.70000000E+00  1.50000000E+00  1.70000000E+00
  1.30000000E+00  1.70000000E+00  1.30000000E+00  1.50000000E+00  8.00000000E-01
  1.50000000E+00  8.00000000E-01
%FLAG SCREEN                                                                    
%FORMAT(5E16.8)                                                                 
  8.50000000E-01  8.50000000E-01  7.20000000E-01  8.50000000E-01  8.50000000E-01
  7.20000000E-01  8.50000000E-01  8.50000000E-01  7.20000000E-01  8.50000000E-01
  7.90000000E-01  7.20000000E-01  8.50000000E-01  7.90000000E-01  7.20000000E-01
  7.20000000E-01  8.50000000E-01  7.90000000E-01  8.50000000E-01  7.20000000E-01
  7.90000000E-01  8.50000000E-01  8.50000000E-01  7.90000000E-01  7.20000000E-01
  7.20000000E-01  8.50000000E-01  7.20000000E-01  8.50000000E-01  8.50000000E-01
  8.50000000E-01  8.60000000E-01  8.50000000E-01  8.50000000E-01  8.50000000E-01
  7.20000000E-01  8.50000000E-01  8.50000000E-01  7.20000000E-01  8.50000000E-01
  8.50000000E-01  7.20000000E-01  8.50000000E-01  7.90000000E-01  7.20000000E-01
  8.50000000E-01  7.90000000E-01  7.20000000E-01  7.20000000E-01  8.50000000E-01
  7.90000000E-01  8.50000000E-01  7.20000000E-01  7.90000000E-01  8.50000000E-01
  8.50000000E-01  7.90000000E-01  7.20000000E-01  7.20000000E-01  8.50000000E-01
  7.20000000E-01  8.50000000E-01  8.50000000E-01  8.50000000E-01  8.60000000E-01
  8.50000000E-01  8.50000000E-01  8.50000000E-01  7.20000000E-01  8.50000000E-01
  8.50000000E-01  7.20000000E-01  8.50000000E-01  8.50000000E-01  7.20000000E-01
  8.50000000E-01  7.90000000E-01  7.20000000E-01  8.50000000E-01  7.90000000E-01
  7.20000000E-01  7.20000000E-01  7.90000000E-01  8.50000000E-01  8.50000000E-01
  7.90000000E-01  7.20000000E-01  8.50000000E-01  7.90000000E-01  7.20000000E-01
  7.20000000E-01  8.50000000E-01  7.20000000E-01  8.50000000E-01  8.50000000E-01
  8.50000000E-01  8.60000000E-01  8.50000000E-01  8.50000000E-01  8.50000000E-01
  7.20000000E-01  8.50000000E-01  8.50000000E-01  7.20000000E-01  8.50000000E-01
  8.50000000E-01  7.20000000E-01  8.50000000E-01  7.90000000E-01  7.20000000E-01
  8.50000000E-01  7.90000000E-01  7.20000000E-01  7.20000000E-01  8.50000000E-01
  7.90000000E-01  8.50000000E-01  7.20000000E-01  7.90000000E-01  8.50000000E-01
  8.50000000E-01  7.90000000E-01  7.20000000E-01  7.20000000E-01  8.50000000E-01
  7.20000000E-01  8.50000000E-01  8.50000000E-01  8.50000000E-01  8.60000000E-01
  8.50000000E-01  8.50000000E-01  8.50000000E-01  7.20000000E-01  8.50000000E-01
  8.50000000E-01  7.20000000E-01  8.50000000E-01  8.50000000E-01  7.20000000E-01
  8.50000000E-01  7.90000000E-01  7.20000000E-01  8.50000000E-01  7.90000000E-01
  7.20000000E-01  7.20000000E-01  7.90000000E-01  8.50000000E-01  8.50000000E-01
  7.90000000E-01  7.20000000E-01  8.50000000E-01  7.90000000E-01  7.20000000E-01
  7.20000000E-01  8.50000000E-01  7.20000000E-01  8.50000000E-01  8.50000000E-01
  8.50000000E-01  8.60000000E-01  8.50000000E-01  8.50000000E-01  8.50000000E-01
  7.20000000E-01  8.50000000E-01  8.50000000E-01  7.20000000E-01  8.50000000E-01
  8.50000000E-01  7.20000000E-01  8.50000000E-01  7.90000000E-01  7.20000000E-01
  8.50000000E-01  7.90000000E-01  7.20000000E-01  7.20000000E-01  8.50000000E-01
  7.90000000E-01  8.50000000E-01  7.20000000E-01  7.90000000E-01  8.50000000E-01
  8.50000000E-01  7.90000000E-01  7.20000000E-01  7.20000000E-01  8.50000000E-01
  7.20000000E-01  8.50000000E-01  8.50000000E-01  8.50000000E-01  8.60000000E-01
  8.50000000E-01  8.50000000E-01  8.50000000E-01  7.20000000E-01  8.50000000E-01
  8.50000000E-01  7.20000000E-01  8.50000000E-01  8.50000000E-01  7.20000000E-01
  8.50000000E-01  7.90000000E-01  7.20000000E-01  8.50000000E-01  7.90000000E-01
  7.20000000E-01  7.20000000E-01  8.50000000E-01  7.90000000E-01  8.50000000E-01
  7.20000000E-01  7.90000000E-01  8.50000000E-01  8.50000000E-01  7.90000000E-01
  7.20000000E-01  7.20000000E-01  8.50000000E-01  7.20000000E-01  8.50000000E-01
  8.50000000E-01  8.50000000E-01  8.60000000E-01  8.50000000E-01  8.50000000E-01
  8.50000000E-01  7.20000000E-01  8.50000000E-01  8.50000000E-01  7.20000000E-01
  8.50000000E-01  8.50000000E-01  7.20000000E-01  8.50000000E-01  7.90000000E-01
  7.20000000E-01  8.50000000E-01  7.90000000E-01  7.20000000E-01  7.20000000E-01
  7.90000000E-01  8.50000000E-01  8.50000000E-01  7.90000000E-01  7.20000000E-01
  8.50000000E-01  7.90000000E-01  7.20000000E-01  7.20000000E-01  8.50000000E-01
  7.20000000E-01  8.50000000E-01  8.50000000E-01  8.50000000E-01  8.60000000E-01
  8.50000000E-01  8.50000000E-01  8.50000000E-01  7.20000000E-01  8.50000000E-01
  8.50000000E-01  7.20000000E-01  8.50000000E-01  8.50000000E-01  7.20000000E-01
  8.50000000E-01  7.90000000E-01  7.20000000E-01  8.50000000E-01  7.90000000E-01
  7.20000000E-01  7.20000000E-01  7.90000000E-01  8.50000000E-01  8.50000000E-01
  7.90000000E-01  7.20000000E-01  8.50000000E-01  7.90000000E-01  7.20000000E-01
  7.20000000E-01  8.50000000E-01  7.20000000E-01  8.50000000E-01  8.50000000E-01
  8.50000000E-01  8.60000000E-01  8.50000000E-01  8.50000000E-01  8.50000000E-01
  7.20000000E-01  8.50000000E-01  8.50000000E-01  7.20000000E-01  8.50000000E-01
  8.50000000E-01  7.20000000E-01  8.50000000E-01  7.90000000E-01  7.20000000E-01
  8.50000000E-01  7.90000000E-01  7.20000000E-01  7.20000000E-01  8.50000000E-01
  7.90000000E-01  8.50000000E-01  7.20000000E-01  7.90000000E-01  8.50000000E-01
  8.50000000E-01  7.90000000E-01  7.20000000E-01  7.20000000E-01  8.50000000E-01
  7.20000000E-01  8.50000000E-01  8.50000000E-01  8.50000000E-01  8.60000000E-01
  8.50000000E-01  8.50000000E-01  8.50000000E-01  7.20000000E-01  8.50000000E-01
  8.50000000E-01  7.20000000E-01  8.50000000E-01  8.50000000E-01  7.20000000E-01
  8.50000000E-01  7.90000000E-01  7.20000000E-01  8.50000000E-01  7.90000000E-01
  7.20000000E-01  7.20000000E-01  7.90000000E-01  8.50000000E-01  8.50000000E-01
  7.90000000E-01  7.20000000E-01  8.50000000E-01  7.90000000E-01  7.20000000E-01
  7.20000000E-01  8.50000000E-01  7.20000000E-01  8.50000000E-01  8.50000000E-01
  8.50000000E-01  8.60000000E-01  8.50000000E-01  8.50000000E-01  8.50000000E-01
  7.20000000E-01  8.50000000E-01  8.50000000E-01  7.20000000E-01  8.50000000E-01
  8.50000000E-01  7.20000000E-01  8.50000000E-01  7.90000000E-01  7.20000000E-01
  8.50000000E-01  7.90000000E-01  7.20000000E-01  7.20000000E-01  8.50000000E-01
  7.90000000E-01  8.50000000E-01  7.20000000E-01  7.90000000E-01  8.50000000E-01
  8.50000000E-01  7.90000000E-01  7.20000000E-01  7.20000000E-01  8.50000000E-01
  7.20000000E-01  8.50000000E-01  8.50000000E-01  8.50000000E-01  8.60000000E-01
  8.50000000E-01  8.50000000E-01  8.50000000E-01  7.20000000E-01  8.50000000E-01
  8.50000000E-01  7.20000000E-01  8.50000000E-01  8.50000000E-01  7.20000000E-01
  8.50000000E-01  7.90000000E-01  7.20000000E-01  8.50000000E-01  7.90000000E-01
  7.20000000E-01  7.20000000E-01  7.90000000E-01  8.50000000E-01  8.50000000E-01
  7.90000000E-01  7.20000000E-01  8.50000000E-01  7.90000000E-01  7.20000000E-01
  7.20000000E-01  8.50000000E-01  7.20000000E-01  8.50000000E-01  8.50000000E-01
  8.50000000E-01  8.60000000E-01  8.50000000E-01  8.50000000E-01  8.50000000E-01
  7.20000000E-01  8.50000000E-01  8.50000000E-01  7.20000000E-01  8.50000000E-01
  8.50000000E-01  7.20000000E-01  8.50000000E-01  7.90000000E-01  7.20000000E-01
  8.50000000E-01  7.90000000E-01  7.20000000E-01  7.20000000E-01  7.90000000E-01
  8.50000000E-01  8.50000000E-01  7.90000000E-01  7.20000000E-01  8.50000000E-01
  7.90000000E-01  7.20000000E-01  7.20000000E-01  8.50000000E-01  7.20000000E-01
  8.50000000E-01  8.50000000E-01  8.50000000E-01  8.60000000E-01  8.50000000E-01
  8.50000000E-01  8.50000000E-01  7.20000000E-01  8.50000000E-01  8.50000000E-01
  7.20000000E-01  8.50000000E-01  8.50000000E-01  7.20000000E-01  8.50000000E-01
  7.90000000E-01  7.20000000E-01  8.50000000E-01  7.90000000E-01  7.20000000E-01
  7.20000000E-01  7.90000000E-01  8.50000000E-01  8.50000000E-01  7.90000000E-01
  7.20000000E-01  8.50000000E-01  7.90000000E-01  7.20000000E-01  7.20000000E-01
  8.50000000E-01  7.20000000E-01  8.50000000E-01  8.50000000E-01  8.50000000E-01
  8.50000000E-01  8.50000000E-01  8.50000000E-01  7.20000000E-01  8.50000000E-01
  8.50000000E-01  7.20000000E-01  8.50000000E-01  8.50000000E-01  7.20000000E-01
  8.50000000E-01  7.90000000E-01  7.20000000E-01  8.50000000E-01  7.20000000E-01
  8.50000000E-01  7.20000000E-01  8.50000000E-01  7.90000000E-01  8.50000000E-01
  7.20000000E-01  8.50000000E-01  7.20000000E-01  8.50000000E-01  7.20000000E-01
  8.50000000E-01  8.50000000E-01  8.50000000E-01  8.50000000E-01  8.60000000E-01
  8.50000000E-01  8.50000000E-01  8.50000000E-01  7.20000000E-01  8.50000000E-01
  8.50000000E-01  7.20000000E-01  8.50000000E-01  8.50000000E-01  7.20000000E-01
  8.50000000E-01  7.90000000E-01  7.20000000E-01  8.50000000E-01  7.20000000E-01
  8.50000000E-01  7.20000000E-01  8.50000000E-01  7.90000000E-01  8.50000000E-01
  7.20000000E-01  8.50000000E-01  7.20000000E-01  8.50000000E-01  7.20000000E-01
  8.50000000E-01  8.50000000E-01  8.50000000E-01  8.50000000E-01  8.60000000E-01
  8.50000000E-01  8.50000000E-01  8.50000000E-01  7.20000000E-01  8.50000000E-01
  8.50000000E-01  7.20000000E-01  8.50000000E-01  8.50000000E-01  7.20000000E-01
  8.50000000E-01  7.90000000E-01  7.20000000E-01  8.50000000E-01  7.20000000E-01
  8.50000000E-01  7.20000000E-01  8.50000000E-01  7.90000000E-01  8.50000000E-01
  7.20000000E-01  8.50000000E-01  7.20000000E-01  8.50000000E-01  7.20000000E-01
  8.50000000E-01  8.50000000E-01  8.50000000E-01  8.50000000E-01  8.60000000E-01
  8.50000000E-01  8.50000000E-01  8.50000000E-01  7.20000000E-01  8.50000000E-01
  8.50000000E-01  7.20000000E-01  8.50000000E-01  8.50000000E-01  7.20000000E-01
  8.50000000E-01  7.90000000E-01  7.20000000E-01  8.50000000E-01  7.20000000E-01
  8.50000000E-01  7.20000000E-01  7.90000000E-01  8.50000000E-01  8.50000000E-01
  7.90000000E-01  7.20000000E-01  8.50000000E-01  7.20000000E-01  8.50000000E-01
  7.20000000E-01  8.50000000E-01  8.50000000E-01  8.50000000E-01  8.50000000E-01
  8.60000000E-01  8.50000000E-01  8.50000000E-01  8.50000000E-01  7.20000000E-01
  8.50000000E-01  8.50000000E-01  7.20000000E-01  8.50000000E-01  8.50000000E-01
  7.20000000E-01  8.50000000E-01  7.90000000E-01  7.20000000E-01  8.50000000E-01
  7.20000000E-01  8.50000000E-01  7.20000000E-01  8.50000000E-01  7.90000000E-01
  8.50000000E-01  7.20000000E-01  8.50000000E-01  7.20000000E-01  8.50000000E-01
  7.20000000E-01  8.50000000E-01  8.50000000E-01  8.50000000E-01  8.50000000E-01
  8.60000000E-01  8.50000000E-01  8.50000000E-01  8.50000000E-01  7.20000000E-01
  8.50000000E-01  8.50000000E-01  7.20000000E-01  8.50000000E-01  8.50000000E-01
  7.20000000E-01  8.50000000E-01  7.90000000E-01  7.20000000E-01  8.50000000E-01
  7.20000000E-01  8.50000000E-01  7.20000000E-01  7.90000000E-01  8.50000000E-01
  8.50000000E-01  7.90000000E-01  7.20000000E-01  8.50000000E-01  7.20000000E-01
  8.50000000E-01  7.20000000E-01  8.50000000E-01  8.50000000E-01  8.50000000E-01
  8.50000000E-01  8.60000000E-01  8.50000000E-01  8.50000000E-01  8.50000000E-01
  7.20000000E-01  8.50000000E-01  8.50000000E-01  7.20000000E-01  8.50000000E-01
  8.50000000E-01  7.20000000E-01  8.50000000E-01  7.90000000E-01  7.20000000E-01
  8.50000000E-01  7.20000000E-01  8.50000000E-01  7.20000000E-01  8.50000000E-01
  7.90000000E-01  8.50000000E-01  7.20000000E-01  8.50000000E-01  7.20000000E-01
  8.50000000E-01  7.20000000E-01  8.50000000E-01  8.50000000E-01  8.50000000E-01
  8.50000000E-01  8.60000000E-01  8.50000000E-01  8.50000000E-01  8.50000000E-01
  7.20000000E-01  8.50000000E-01  8.50000000E-01  7.20000000E-01  8.50000000E-01
  8.50000000E-01  7.20000000E-01  8.50000000E-01  7.90000000E-01  7.20000000E-01
  8.50000000E-01  7.20000000E-01  8.50000000E-01  7.20000000E-01  8.50000000E-01
  7.90000000E-01  8.50000000E-01  7.20000000E-01  8.50000000E-01  7.20000000E-01
  8.50000000E-01  7.20000000E-01  8.50000000E-01  8.50000000E-01  8.50000000E-01
  8.50000000E-01  8.60000000E-01  8.50000000E-01  8.50000000E-01  8.50000000E-01
  7.20000000E-01  8.50000000E-01  8.50000000E-01  7.20000000E-01  8.50000000E-01
  8.50000000E-01  7.20000000E-01  8.50000000E-01  7.90000000E-01  7.20000000E-01
  8.50000000E-01  7.20000000E-01  8.50000000E-01  7.20000000E-01  7.90000000E-01
  8.50000000E-01  8.50000000E-01  7.90000000E-01  7.20000000E-01  8.50000000E-01
  7.20000000E-01  8.50000000E-01  7.20000000E-01  8.50000000E-01  8.50000000E-01
  8.50000000E-01  8.50000000E-01  8.60000000E-01  8.50000000E-01  8.50000000E-01
  8.50000000E-01  7.20000000E-01  8.50000000E-01  8.50000000E-01  7.20000000E-01
  8.50000000E-01  8.50000000E-01  7.20000000E-01  8.50000000E-01  7.90000000E-01
  7.20000000E-01  8.50000000E-01  7.20000000E-01  8.50000000E-01  7.20000000E-01
  7.90000000E-01  8.50000000E-01  8.50000000E-01  7.90000000E-01  7.20000000E-01
  8.50000000E-01  7.20000000E-01  8.50000000E-01  7.20000000E-01  8.50000000E-01
  8.50000000E-01  8.50000000E-01  8.50000000E-01  8.60000000E-01  8.50000000E-01
  8.50000000E-01  8.50000000E-01  7.20000000E-01  8.50000000E-01  8.50000000E-01
  7.20000000E-01  8.50000000E-01  8.50000000E-01  7.20000000E-01  8.50000000E-01
  7.90000000E-01  7.20000000E-01  8.50000000E-01  7.20000000E-01  8.50000000E-01
  7.20000000E-01  8.50000000E-01  7.90000000E-01  8.50000000E-01  7.20000000E-01
  8.50000000E-01  7.20000000E-01  8.50000000E-01  7.20000000E-01  8.50000000E-01
  8.50000000E-01  8.50000000E-01  8.50000000E-01  8.60000000E-01  8.50000000E-01
  8.50000000E-01  8.50000000E-01  7.20000000E-01  8.50000000E-01  8.50000000E-01
  7.20000000E-01  8.50000000E-01  8.50000000E-01  7.20000000E-01  8.50000000E-01
  7.90000000E-01  7.20000000E-01  8.50000000E-01  7.20000000E-01  8.50000000E-01
  7.20000000E-01  7.90000000E-01  8.50000000E-01  8.50000000E-01  7.90000000E-01
  7.20000000E-01  8.50000000E-01  7.20000000E-01  8.50000000E-01  7.20000000E-01
  8.50000000E-01  8.50000000E-01  8.50000000E-01  8.50000000E-01  8.60000000E-01
  8.50000000E-01  8.50000000E-01  8.50000000E-01  7.20000000E-01  8.50000000E-01
  8.50000000E-01  7.20000000E-01  8.50000000E-01  8.50000000E-01  7.20000000E-01
  8.50000000E-01  7.90000000E-01  7.20000000E-01  8.50000000E-01  7.20000000E-01
  8.50000000E-01  7.20000000E-01  8.50000000E-01  7.90000000E-01  8.50000000E-01
  7.20000000E-01  8.50000000E-01  7.20000000E-01  8.50000000E-01  7.20000000E-01
  8.50000000E-01  8.50000000E-01  8.50000000E-01  8.50000000E-01  8.60000000E-01
  8.50000000E-01  8.50000000E-01  8.50000000E-01  7.20000000E-01  8.50000000E-01
  8.50000000E-01  7.20000000E-01  8.50000000E-01  8.50000000E-01  7.20000000E-01
  8.50000000E-01  7.90000000E-01  7.20000000E-01  8.50000000E-01  7.20000000E-01
  8.50000000E-01  7.20000000E-01  7.90000000E-01  8.50000000E-01  8.50000000E-01
  7.90000000E-01  7.20000000E-01  8.50000000E-01  7.20000000E-01  8.50000000E-01
  7.20000000E-01  8.50000000E-01  8.50000000E-01  8.50000000E-01  8.50000000E-01
  8.60000000E-01  8.50000000E-01  8.50000000E-01  8.50000000E-01  7.20000000E-01
  8.50000000E-01  8.50000000E-01  7.20000000E-01  8.50000000E-01  8.50000000E-01
  7.20000000E-01  8.50000000E-01  7.90000000E-01  7.20000000E-01  8.50000000E-01
  7.20000000E-01  8.50000000E-01  7.20000000E-01  7.90000000E-01  8.50000000E-01
  8.50000000E-01  7.90000000E-01  7.20000000E-01  8.50000000E-01  7.20000000E-01
  8.50000000E-01  7.20000000E-01  8.50000000E-01  8.50000000E-01  8.50000000E-01
  8.50000000E-01  8.50000000E-01
%FLAG IPOL                                                                      
%FORMAT(1I8)                                                                    
       0
