%VERSION  VERSION_STAMP = V0001.000  DATE = 09/05/26  00:23:37                  
%FLAG TITLE                                                                     
%FORMAT(20a4)                                                                   
default_name                                                                    
%FLAG POINTERS                                                                  
%FORMAT(10I8)                                                                   
     165      10      84      84     187     115     372     344       0       0
     904      11      84     115     344      24      55      52      14       0
       0       0       0       0       0       0       0       0      21       0
       0
%FLAG ATOM_NAME                                                                 
%FORMAT(20a4)                                                                   
H1  CH3 H2  H3  C   O   N   H   CA  HA  CB  HB2 HB3 CG  HG  CD1 HD11HD12HD13CD2 
HD21HD22HD23C   O   N   H   CA  HA  CB  HB2 HB3 CG  HG  CD1 HD11HD12HD13CD2 HD21
HD22HD23C   O   N   H   CA  HA  CB  HB2 HB3 CG  CD1 HD1 CE1 HE1 CZ  HZ  CE2 HE2 
CD2 HD2 C   O   N   H   CA  HA2 HA3 C   O   N   H   CA  HA  CB  HB2 HB3 CG  CD1 
HD1 CE1 HE1 CZ  OH  HH  CE2 HE2 CD2 HD2 C   O   N   CD  HD2 HD3 CG  HG2 HG3 CB  
HB2 HB3 CA  HA  C   O   N   H   CA  HA  CB  HB  CG1 HG11HG12HG13CG2 HG21HG22HG23
C   O   N   H   CA  HA  CB  HB2 HB3 CG  CD1 HD1 CE1 HE1 CZ  OH  HH  CE2 HE2 CD2 
HD2 C   O   N   H   CA  HA  CB  HB  CG1 HG11HG12HG13CG2 HG21HG22HG23C   O   N   
H   C   H1  H2  H3  
%FLAG CHARGE                                                                    
%FORMAT(5E16.8)                                                                 
  2.04636429E+00 -6.67300626E+00  2.04636429E+00  2.04636429E+00  1.08823576E+01
 -1.03484442E+01 -7.57501011E+00  4.95464337E+00 -9.43915140E-01  1.68009606E+00
 -2.00809746E+00  8.32759110E-01  8.32759110E-01  6.43429413E+00 -6.57825030E-01
 -7.50940983E+00  1.82223000E+00  1.82223000E+00  1.82223000E+00 -7.50940983E+00
  1.82223000E+00  1.82223000E+00  1.82223000E+00  1.08841798E+01 -1.03484442E+01
 -7.57501011E+00  4.95464337E+00 -9.43915140E-01  1.68009606E+00 -2.00809746E+00
  8.32759110E-01  8.32759110E-01  6.43429413E+00 -6.57825030E-01 -7.50940983E+00
  1.82223000E+00  1.82223000E+00  1.82223000E+00 -7.50940983E+00  1.82223000E+00
  1.82223000E+00  1.82223000E+00  1.08841798E+01 -1.03484442E+01 -7.57501011E+00
  4.95464337E+00 -4.37335200E-02  1.78214094E+00 -6.25024890E-01  5.37557850E-01
  5.37557850E-01  2.15023140E-01 -2.28872088E+00  2.42356590E+00 -3.10507992E+00
  2.60578890E+00 -1.95343056E+00  2.36343231E+00 -3.10507992E+00  2.60578890E+00
 -2.28872088E+00  2.42356590E+00  1.08841798E+01 -1.03484442E+01 -7.57501011E+00
  4.95464337E+00 -4.59201960E-01  1.27191654E+00  1.27191654E+00  1.08841798E+01
 -1.03484442E+01 -7.57501011E+00  4.95464337E+00 -2.55112200E-02  1.59627348E+00
 -2.76978960E-01  5.37557850E-01  5.37557850E-01 -2.00445300E-02 -3.47317038E+00
  3.09596877E+00 -4.26584043E+00  3.01761288E+00  5.87851398E+00 -1.01662212E+01
  7.27434216E+00 -4.26584043E+00  3.01761288E+00 -3.47317038E+00  3.09596877E+00
  1.08841798E+01 -1.03484442E+01 -4.64304204E+00  3.49868160E-01  7.12491930E-01
  7.12491930E-01  3.44401470E-01  3.88134990E-01  3.88134990E-01 -1.27556100E-01
  4.61024190E-01  4.61024190E-01 -4.84713180E-01  1.16804943E+00  1.07438681E+01
 -1.04741780E+01 -7.57501011E+00  4.95464337E+00 -1.59445125E+00  1.76574087E+00
  5.43935655E+00 -5.41202310E-01 -5.81655816E+00  1.44138393E+00  1.44138393E+00
  1.44138393E+00 -5.81655816E+00  1.44138393E+00  1.44138393E+00  1.44138393E+00
  1.08841798E+01 -1.03484442E+01 -7.57501011E+00  4.95464337E+00 -2.55112200E-02
  1.59627348E+00 -2.76978960E-01  5.37557850E-01  5.37557850E-01 -2.00445300E-02
 -3.47317038E+00  3.09596877E+00 -4.26584043E+00  3.01761288E+00  5.87851398E+00
 -1.01662212E+01  7.27434216E+00 -4.26584043E+00  3.01761288E+00 -3.47317038E+00
  3.09596877E+00  1.08841798E+01 -1.03484442E+01 -7.57501011E+00  4.95464337E+00
 -1.59445125E+00  1.76574087E+00  5.43935655E+00 -5.41202310E-01 -5.81655816E+00
  1.44138393E+00  1.44138393E+00  1.44138393E+00 -5.81655816E+00  1.44138393E+00
  1.44138393E+00  1.44138393E+00  1.08841798E+01 -1.03484442E+01 -7.57501011E+00
  4.95464337E+00 -2.71512270E+00  1.77849648E+00  1.77849648E+00  1.77849648E+00
%FLAG ATOMIC_NUMBER                                                             
%FORMAT(10I8)                                                                   
       1       6       1       1       6       8       7       1       6       1
       6       1       1       6       1       6       1       1       1       6
       1       1       1       6       8       7       1       6       1       6
       1       1       6       1       6       1       1       1       6       1
       1       1       6       8       7       1       6       1       6       1
       1       6       6       1       6       1       6       1       6       1
       6       1       6       8       7       1       6       1       1       6
       8       7       1       6       1       6       1       1       6       6
       1       6       1       6       8       1       6       1       6       1
       6       8       7       6       1       1       6       1       1       6
       1       1       6       1       6       8       7       1       6       1
       6       1       6       1       1       1       6       1       1       1
       6       8       7       1       6       1       6       1       1       6
       6       1       6       1       6       8       1       6       1       6
       1       6       8       7       1       6       1       6       1       6
       1       1       1       6       1       1       1       6       8       7
       1       6       1       1       1
%FLAG MASS                                                                      
%FORMAT(5E16.8)                                                                 
  1.00800000E+00  1.20100000E+01  1.00800000E+00  1.00800000E+00  1.20100000E+01
  1.60000000E+01  1.40100000E+01  1.00800000E+00  1.20100000E+01  1.00800000E+00
  1.20100000E+01  1.00800000E+00  1.00800000E+00  1.20100000E+01  1.00800000E+00
  1.20100000E+01  1.00800000E+00  1.00800000E+00  1.00800000E+00  1.20100000E+01
  1.00800000E+00  1.00800000E+00  1.00800000E+00  1.20100000E+01  1.60000000E+01
  1.40100000E+01  1.00800000E+00  1.20100000E+01  1.00800000E+00  1.20100000E+01
  1.00800000E+00  1.00800000E+00  1.20100000E+01  1.00800000E+00  1.20100000E+01
  1.00800000E+00  1.00800000E+00  1.00800000E+00  1.20100000E+01  1.00800000E+00
  1.00800000E+00  1.00800000E+00  1.20100000E+01  1.60000000E+01  1.40100000E+01
  1.00800000E+00  1.20100000E+01  1.00800000E+00  1.20100000E+01  1.00800000E+00
  1.00800000E+00  1.20100000E+01  1.20100000E+01  1.00800000E+00  1.20100000E+01
  1.00800000E+00  1.20100000E+01  1.00800000E+00  1.20100000E+01  1.00800000E+00
  1.20100000E+01  1.00800000E+00  1.20100000E+01  1.60000000E+01  1.40100000E+01
  1.00800000E+00  1.20100000E+01  1.00800000E+00  1.00800000E+00  1.20100000E+01
  1.60000000E+01  1.40100000E+01  1.00800000E+00  1.20100000E+01  1.00800000E+00
  1.20100000E+01  1.00800000E+00  1.00800000E+00  1.20100000E+01  1.20100000E+01
  1.00800000E+00  1.20100000E+01  1.00800000E+00  1.20100000E+01  1.60000000E+01
  1.00800000E+00  1.20100000E+01  1.00800000E+00  1.20100000E+01  1.00800000E+00
  1.20100000E+01  1.60000000E+01  1.40100000E+01  1.20100000E+01  1.00800000E+00
  1.00800000E+00  1.20100000E+01  1.00800000E+00  1.00800000E+00  1.20100000E+01
  1.00800000E+00  1.00800000E+00  1.20100000E+01  1.00800000E+00  1.20100000E+01
  1.60000000E+01  1.40100000E+01  1.00800000E+00  1.20100000E+01  1.00800000E+00
  1.20100000E+01  1.00800000E+00  1.20100000E+01  1.00800000E+00  1.00800000E+00
  1.00800000E+00  1.20100000E+01  1.00800000E+00  1.00800000E+00  1.00800000E+00
  1.20100000E+01  1.60000000E+01  1.40100000E+01  1.00800000E+00  1.20100000E+01
  1.00800000E+00  1.20100000E+01  1.00800000E+00  1.00800000E+00  1.20100000E+01
  1.20100000E+01  1.00800000E+00  1.20100000E+01  1.00800000E+00  1.20100000E+01
  1.60000000E+01  1.00800000E+00  1.20100000E+01  1.00800000E+00  1.20100000E+01
  1.00800000E+00  1.20100000E+01  1.60000000E+01  1.40100000E+01  1.00800000E+00
  1.20100000E+01  1.00800000E+00  1.20100000E+01  1.00800000E+00  1.20100000E+01
  1.00800000E+00  1.00800000E+00  1.00800000E+00  1.20100000E+01  1.00800000E+00
  1.00800000E+00  1.00800000E+00  1.20100000E+01  1.60000000E+01  1.40100000E+01
  1.00800000E+00  1.20100000E+01  1.00800000E+00  1.00800000E+00  1.00800000E+00
%FLAG ATOM_TYPE_INDEX                                                           
%FORMAT(10I8)                                                                   
       1       2       1       1       3       4       5       6       2       7
       2       1       1       2       1       2       1       1       1       2
       1       1       1       3       4       5       6       2       7       2
       1       1       2       1       2       1       1       1       2       1
       1       1       3       4       5       6       2       7       2       1
       1       3       3       8       3       8       3       8       3       8
       3       8       3       4       5       6       2       7       7       3
       4       5       6       2       7       2       1       1       3       3
       8       3       8       3       9      10       3       8       3       8
       3       4       5       2       7       7       2       1       1       2
       1       1       2       7       3       4       5       6       2       7
       2       1       2       1       1       1       2       1       1       1
       3       4       5       6       2       7       2       1       1       3
       3       8       3       8       3       9      10       3       8       3
       8       3       4       5       6       2       7       2       1       2
       1       1       1       2       1       1       1       3       4       5
       6       2       7       7       7
%FLAG NUMBER_EXCLUDED_ATOMS                                                     
%FORMAT(10I8)                                                                   
       6       7       4       3       7       3      10       4      13       7
      15       6       5      10       8       7       3       2       1       3
       2       1       1       7       3      10       4      13       7      15
       6       5      10       8       7       3       2       1       3       2
       1       1       7       3      10       4      12       7      12       5
       4      10       8       4       6       3       5       3       3       2
       1       1       7       3       7       4       7       4       3       7
       3      10       4      12       7      12       5       4      10       8
       4       7       3       6       4       1       3       2       1       1
      10       3      14      11       6       5       8       5       4       7
       4       3       6       3       7       3      10       4      16       7
      12       9       8       3       2       1       4       2       1       1
       7       3      10       4      12       7      12       5       4      10
       8       4       7       3       6       4       1       3       2       1
       1       7       3      10       4      16       7      12       9       8
       3       2       1       4       2       1       1       7       3       5
       4       3       2       1       1
%FLAG NONBONDED_PARM_INDEX                                                      
%FORMAT(10I8)                                                                   
       1       2       4       7      11      16      22      29      37      46
       2       3       5       8      12      17      23      30      38      47
       4       5       6       9      13      18      24      31      39      48
       7       8       9      10      14      19      25      32      40      49
      11      12      13      14      15      20      26      33      41      50
      16      17      18      19      20      21      27      34      42      51
      22      23      24      25      26      27      28      35      43      52
      29      30      31      32      33      34      35      36      44      53
      37      38      39      40      41      42      43      44      45      54
      46      47      48      49      50      51      52      53      54      55
%FLAG RESIDUE_LABEL                                                             
%FORMAT(20a4)                                                                   
ACE LEU LEU PHE GLY TYR PRO VAL TYR VAL NME 
%FLAG RESIDUE_POINTER                                                           
%FORMAT(10I8)                                                                   
       1       7      26      45      65      72      93     107     123     144
     160
%FLAG BOND_FORCE_CONSTANT                                                       
%FORMAT(5E16.8)                                                                 
  5.70000000E+02  4.90000000E+02  3.40000000E+02  3.17000000E+02  3.40000000E+02
  3.10000000E+02  3.40000000E+02  3.10000000E+02  3.40000000E+02  3.10000000E+02
  3.17000000E+02  4.34000000E+02  3.37000000E+02  3.67000000E+02  4.69000000E+02
  3.17000000E+02  3.10000000E+02  5.53000000E+02  4.50000000E+02  4.69000000E+02
  3.10000000E+02  3.40000000E+02  3.37000000E+02  3.10000000E+02
%FLAG BOND_EQUIL_VALUE                                                          
%FORMAT(5E16.8)                                                                 
  1.22900000E+00  1.33500000E+00  1.09000000E+00  1.52200000E+00  1.09000000E+00
  1.52600000E+00  1.09000000E+00  1.52600000E+00  1.09000000E+00  1.52600000E+00
  1.52200000E+00  1.01000000E+00  1.44900000E+00  1.08000000E+00  1.40000000E+00
  1.51000000E+00  1.52600000E+00  9.60000000E-01  1.36400000E+00  1.40900000E+00
  1.52600000E+00  1.09000000E+00  1.44900000E+00  1.52600000E+00
%FLAG ANGLE_FORCE_CONSTANT                                                      
%FORMAT(5E16.8)                                                                 
  8.00000000E+01  5.00000000E+01  5.00000000E+01  5.00000000E+01  3.50000000E+01
  8.00000000E+01  7.00000000E+01  4.00000000E+01  5.00000000E+01  5.00000000E+01
  5.00000000E+01  3.50000000E+01  6.30000000E+01  5.00000000E+01  4.00000000E+01
  5.00000000E+01  5.00000000E+01  5.00000000E+01  4.00000000E+01  8.00000000E+01
  7.00000000E+01  5.00000000E+01  5.00000000E+01  8.00000000E+01  6.30000000E+01
  5.00000000E+01  6.30000000E+01  5.00000000E+01  6.30000000E+01  7.00000000E+01
  5.00000000E+01  5.00000000E+01  6.30000000E+01  8.00000000E+01  3.50000000E+01
  5.00000000E+01  7.00000000E+01  5.00000000E+01  5.00000000E+01  6.30000000E+01
  6.30000000E+01  5.00000000E+01  4.00000000E+01  5.00000000E+01  3.50000000E+01
  5.00000000E+01  4.00000000E+01  5.00000000E+01  8.00000000E+01  6.30000000E+01
  5.00000000E+01  5.00000000E+01  4.00000000E+01  8.00000000E+01  5.00000000E+01
%FLAG ANGLE_EQUIL_VALUE                                                         
%FORMAT(5E16.8)                                                                 
  2.14501057E+00  2.09439600E+00  2.12755727E+00  1.91113635E+00  1.91113635E+00
  2.10137732E+00  2.03505478E+00  1.91113635E+00  1.91113635E+00  1.91113635E+00
  1.91113635E+00  1.91113635E+00  1.93906163E+00  1.91113635E+00  1.91113635E+00
  1.91113635E+00  1.91113635E+00  1.91113635E+00  1.91113635E+00  2.10137732E+00
  2.03505478E+00  2.06018753E+00  1.91113635E+00  1.91462701E+00  1.92160833E+00
  2.09439600E+00  2.09439600E+00  1.91113635E+00  1.93906163E+00  2.09439600E+00
  1.91113635E+00  1.91113635E+00  1.98967620E+00  1.91462701E+00  1.91113635E+00
  2.12755727E+00  2.09439600E+00  1.97222290E+00  2.09439600E+00  2.09439600E+00
  2.09439600E+00  1.91113635E+00  1.91113635E+00  1.91113635E+00  1.91113635E+00
  2.05948940E+00  1.91113635E+00  1.91113635E+00  1.91462701E+00  1.93906163E+00
  1.91113635E+00  1.91113635E+00  1.91113635E+00  1.91462701E+00  2.06018753E+00
%FLAG DIHEDRAL_FORCE_CONSTANT                                                   
%FORMAT(5E16.8)                                                                 
  2.00000000E+00  2.50000000E+00  0.00000000E+00  0.00000000E+00  0.00000000E+00
  0.00000000E+00  8.00000000E-01  8.00000000E-02  1.60000000E-01  1.50000000E-01
  7.06000000E-01  6.20000000E-01  1.44000000E-01  1.90000000E-01  1.55555556E-01
  0.00000000E+00  3.79000000E-01  2.70000000E-02  1.42000000E-01  1.79000000E-01
  9.80000000E-02  2.59000000E-01  7.30000000E-02  0.00000000E+00  0.00000000E+00
  3.62500000E+00  5.50000000E-02  4.69000000E-01  1.92000000E-01  1.20000000E-02
  6.90000000E-02  4.80000000E-02  1.20000000E-02  2.90000000E-01  7.00000000E-03
  2.00000000E+00  4.00000000E-01  8.83000000E-01  6.50000000E-02  2.00000000E-01
  2.50000000E-01  1.80000000E-01  4.06000000E-01  2.89000000E-01  1.48000000E-01
  1.12000000E-01  3.37000000E-01  2.16000000E-01  1.00000000E-03  1.05000000E+01
  1.10000000E+00  1.00000000E+00
%FLAG DIHEDRAL_PERIODICITY                                                      
%FORMAT(5E16.8)                                                                 
  1.00000000E+00  2.00000000E+00  2.00000000E+00  1.00000000E+00  3.00000000E+00
  4.00000000E+00  1.00000000E+00  3.00000000E+00  3.00000000E+00  3.00000000E+00
  1.00000000E+00  2.00000000E+00  3.00000000E+00  4.00000000E+00  3.00000000E+00
  3.00000000E+00  1.00000000E+00  2.00000000E+00  3.00000000E+00  4.00000000E+00
  1.00000000E+00  2.00000000E+00  4.00000000E+00  1.00000000E+00  2.00000000E+00
  2.00000000E+00  1.00000000E+00  2.00000000E+00  3.00000000E+00  4.00000000E+00
  2.00000000E+00  4.00000000E+00  1.00000000E+00  2.00000000E+00  4.00000000E+00
  2.00000000E+00  3.00000000E+00  2.00000000E+00  4.00000000E+00  1.00000000E+00
  2.00000000E+00  3.00000000E+00  1.00000000E+00  2.00000000E+00  3.00000000E+00
  4.00000000E+00  1.00000000E+00  2.00000000E+00  4.00000000E+00  2.00000000E+00
  2.00000000E+00  2.00000000E+00
%FLAG DIHEDRAL_PHASE                                                            
%FORMAT(5E16.8)                                                                 
  0.00000000E+00  3.14159400E+00  0.00000000E+00  0.00000000E+00  0.00000000E+00
  0.00000000E+00  0.00000000E+00  3.14159400E+00  0.00000000E+00  0.00000000E+00
  0.00000000E+00  3.14159400E+00  0.00000000E+00  0.00000000E+00  0.00000000E+00
  3.14159400E+00  0.00000000E+00  3.14159400E+00  0.00000000E+00  0.00000000E+00
  0.00000000E+00  3.14159400E+00  0.00000000E+00  3.14159400E+00  3.14159400E+00
  3.14159400E+00  0.00000000E+00  3.14159400E+00  0.00000000E+00  3.14159400E+00
  3.14159400E+00  3.14159400E+00  3.14159400E+00  3.14159400E+00  3.14159400E+00
  0.00000000E+00  0.00000000E+00  3.14159400E+00  0.00000000E+00  3.14159400E+00
  3.14159400E+00  0.00000000E+00  3.14159400E+00  3.14159400E+00  0.00000000E+00
  0.00000000E+00  0.00000000E+00  3.14159400E+00  3.14159400E+00  3.14159400E+00
  3.14159400E+00  3.14159400E+00
%FLAG SCEE_SCALE_FACTOR                                                         
%FORMAT(5E16.8)                                                                 
  1.20000000E+00  1.20000000E+00  1.20000000E+00  1.20000000E+00  1.20000000E+00
  1.20000000E+00  1.20000000E+00  1.20000000E+00  1.20000000E+00  1.20000000E+00
  1.20000000E+00  1.20000000E+00  1.20000000E+00  1.20000000E+00  1.20000000E+00
  1.20000000E+00  1.20000000E+00  1.20000000E+00  1.20000000E+00  1.20000000E+00
  1.20000000E+00  1.20000000E+00  1.20000000E+00  1.20000000E+00  1.20000000E+00
  1.20000000E+00  1.20000000E+00  1.20000000E+00  1.20000000E+00  1.20000000E+00
  1.20000000E+00  1.20000000E+00  1.20000000E+00  1.20000000E+00  1.20000000E+00
  1.20000000E+00  1.20000000E+00  1.20000000E+00  1.20000000E+00  1.20000000E+00
  1.20000000E+00  1.20000000E+00  1.20000000E+00  1.20000000E+00  1.20000000E+00
  1.20000000E+00  1.20000000E+00  1.20000000E+00  1.20000000E+00  0.00000000E+00
  0.00000000E+00  0.00000000E+00
%FLAG SCNB_SCALE_FACTOR                                                         
%FORMAT(5E16.8)                                                                 
  2.00000000E+00  2.00000000E+00  2.00000000E+00  2.00000000E+00  2.00000000E+00
  2.00000000E+00  2.00000000E+00  2.00000000E+00  2.00000000E+00  2.00000000E+00
  2.00000000E+00  2.00000000E+00  2.00000000E+00  2.00000000E+00  2.00000000E+00
  2.00000000E+00  2.00000000E+00  2.00000000E+00  2.00000000E+00  2.00000000E+00
  2.00000000E+00  2.00000000E+00  2.00000000E+00  2.00000000E+00  2.00000000E+00
  2.00000000E+00  2.00000000E+00  2.00000000E+00  2.00000000E+00  2.00000000E+00
  2.00000000E+00  2.00000000E+00  2.00000000E+00  2.00000000E+00  2.00000000E+00
  2.00000000E+00  2.00000000E+00  2.00000000E+00  2.00000000E+00  2.00000000E+00
  2.00000000E+00  2.00000000E+00  2.00000000E+00  2.00000000E+00  2.00000000E+00
  2.00000000E+00  2.00000000E+00  2.00000000E+00  2.00000000E+00  0.00000000E+00
  0.00000000E+00  0.00000000E+00
%FLAG SOLTY                                                                     
%FORMAT(5E16.8)                                                                 
  0.00000000E+00  0.00000000E+00  0.00000000E+00  0.00000000E+00  0.00000000E+00
  0.00000000E+00  0.00000000E+00  0.00000000E+00  0.00000000E+00  0.00000000E+00
  0.00000000E+00  0.00000000E+00  0.00000000E+00  0.00000000E+00
%FLAG LENNARD_JONES_ACOEF                                                       
%FORMAT(5E16.8)                                                                 
  7.51607703E+03  9.71708117E+04  1.04308023E+06  8.61541883E+04  9.24822270E+05
  8.19971662E+05  5.44261042E+04  6.47841731E+05  5.74393458E+05  3.79876399E+05
  8.96776989E+04  9.95480466E+05  8.82619071E+05  6.06829342E+05  9.44293233E+05
  1.07193646E+02  2.56678134E+03  2.27577561E+03  1.02595236E+03  2.12601181E+03
  1.39982777E-01  4.98586848E+03  6.78771368E+04  6.01816484E+04  3.69471530E+04
  6.20665997E+04  5.94667300E+01  3.25969625E+03  6.55825601E+03  8.59947003E+04
  7.62451550E+04  4.77908183E+04  7.91627154E+04  8.90987508E+01  4.33325458E+03
  5.71629601E+03  6.82786631E+04  7.91544157E+05  7.01803794E+05  4.71003287E+05
  7.44975864E+05  1.40467023E+03  4.66922514E+04  6.00750218E+04  5.81803229E+05
  0.00000000E+00  0.00000000E+00  0.00000000E+00  0.00000000E+00  0.00000000E+00
  0.00000000E+00  0.00000000E+00  0.00000000E+00  0.00000000E+00  0.00000000E+00
%FLAG LENNARD_JONES_BCOEF                                                       
%FORMAT(5E16.8)                                                                 
  2.17257828E+01  1.26919150E+02  6.75612247E+02  1.12529845E+02  5.99015525E+02
  5.31102864E+02  1.11805549E+02  6.26720080E+02  5.55666448E+02  5.64885984E+02
  1.36131731E+02  7.36907417E+02  6.53361429E+02  6.77220874E+02  8.01323529E+02
  2.59456373E+00  2.06278363E+01  1.82891803E+01  1.53505284E+01  2.09604198E+01
  9.37598976E-02  1.76949863E+01  1.06076943E+02  9.40505980E+01  9.21192136E+01
  1.13252061E+02  1.93248820E+00  1.43076527E+01  2.00642027E+01  1.18043746E+02
  1.04660679E+02  1.03580945E+02  1.26451907E+02  2.33864085E+00  1.63092814E+01
  1.85196588E+01  1.25287818E+02  6.93079947E+02  6.14502845E+02  6.29300710E+02
  7.50714425E+02  1.79702257E+01  1.03606917E+02  1.16187983E+02  6.99746810E+02
  0.00000000E+00  0.00000000E+00  0.00000000E+00  0.00000000E+00  0.00000000E+00
  0.00000000E+00  0.00000000E+00  0.00000000E+00  0.00000000E+00  0.00000000E+00
%FLAG BONDS_INC_HYDROGEN                                                        
%FORMAT(10I8)                                                                   
       3       6       3       3       9       3       0       3       3      57
      60       3      57      63       3      57      66       3      45      48
       3      45      51       3      45      54       3      39      42       5
      30      33       7      30      36       7      24      27       9      18
      21      12     114     117       3     114     120       3     114     123
       3     102     105       3     102     108       3     102     111       3
      96      99       5      87      90       7      87      93       7      81
      84       9      75      78      12     180     183      14     174     177
      14     168     171      14     162     165      14     156     159      14
     144     147       3     144     150       3     138     141       9     132
     135      12     198     201       9     198     204       9     192     195
      12     264     267      14     258     261      14     252     255      18
     243     246      14     237     240      14     225     228       3     225
     231       3     219     222       9     213     216      12     306     309
       9     297     300       3     297     303       3     288     291       3
     288     294       3     279     282      22     279     285      22     348
     351       3     348     354       3     348     357       3     336     339
       3     336     342       3     336     345       3     330     333       5
     324     327       9     318     321      12     417     420      14     411
     414      14     405     408      18     396     399      14     390     393
      14     378     381       3     378     384       3     372     375       9
     366     369      12     459     462       3     459     465       3     459
     468       3     447     450       3     447     453       3     447     456
       3     441     444       5     435     438       9     429     432      12
     483     486      22     483     489      22     483     492      22     477
     480      12
%FLAG BONDS_WITHOUT_HYDROGEN                                                    
%FORMAT(10I8)                                                                   
      12      15       1      12      18       2       3      12       4      69
      72       1      69      75       2      39      45       6      39      57
       6      30      39       8      24      30      10      24      69      11
      18      24      13     126     129       1     126     132       2      96
     102       6      96     114       6      87      96       8      81      87
      10      81     126      11      75      81      13     186     189       1
     186     192       2     174     180      15     168     174      15     162
     168      15     156     162      15     153     156      15     153     180
      15     144     153      16     138     144      17     138     186      11
     132     138      13     207     210       1     207     213       2     198
     207      11     192     198      13     270     273       1     270     276
       2     258     264      15     249     252      19     249     258      20
     243     249      20     237     243      15     234     237      15     234
     264      15     225     234      16     219     225      17     219     270
      11     213     219      13     312     315       1     312     318       2
     306     312      11     297     306      17     288     297      21     279
     288      21     276     279      23     276     306      13     360     363
       1     360     366       2     330     336       6     330     348       6
     324     330      24     324     360      11     318     324      13     423
     426       1     423     429       2     411     417      15     402     405
      19     402     411      20     396     402      20     390     396      15
     387     390      15     387     417      15     378     387      16     372
     378      17     372     423      11     366     372      13     471     474
       1     471     477       2     441     447       6     441     459       6
     435     441      24     435     471      11     429     435      13     477
     483      23
%FLAG ANGLES_INC_HYDROGEN                                                       
%FORMAT(10I8)                                                                   
      12      18      21       2       9       3      12       4       6       3
       9       5       6       3      12       4       0       3       6       5
       0       3       9       5       0       3      12       4      69      75
      78       2      63      57      66       5      60      57      63       5
      60      57      66       5      51      45      54       5      48      45
      51       5      48      45      54       5      42      39      45       9
      42      39      57       9      39      45      48      10      39      45
      51      10      39      45      54      10      39      57      60      10
      39      57      63      10      39      57      66      10      36      30
      39      11      33      30      36      12      33      30      39      11
      30      39      42      14      27      24      30      16      27      24
      69      17      24      30      33      18      24      30      36      18
      21      18      24      22      18      24      27      23     126     132
     135       2     120     114     123       5     117     114     120       5
     117     114     123       5     108     102     111       5     105     102
     108       5     105     102     111       5      99      96     102       9
      99      96     114       9      96     102     105      10      96     102
     108      10      96     102     111      10      96     114     117      10
      96     114     120      10      96     114     123      10      93      87
      96      11      90      87      93      12      90      87      96      11
      87      96      99      14      84      81      87      16      84      81
     126      17      81      87      90      18      81      87      93      18
      78      75      81      22      75      81      84      23     186     192
     195       2     177     174     180      26     174     180     183      26
     171     168     174      26     168     174     177      26     165     162
     168      26     162     168     171      26     159     156     162      26
     156     162     165      26     153     156     159      26     153     180
     183      26     150     144     153      28     147     144     150       5
     147     144     153      28     141     138     144      31     141     138
     186      17     138     144     147      32     138     144     150      32
     135     132     138      22     132     138     141      23     207     213
     216       2     204     198     207      17     201     198     204      35
     201     198     207      17     195     192     198      22     192     198
     201      23     192     198     204      23     261     258     264      26
     258     264     267      26     249     252     255      38     249     258
     261      39     246     243     249      39     240     237     243      26
     237     243     246      26     234     237     240      26     234     264
     267      26     231     225     234      28     228     225     231       5
     228     225     234      28     222     219     225      31     222     219
     270      17     219     225     228      32     219     225     231      32
     216     213     219      22     213     219     222      23     312     318
     321       2     309     306     312      17     303     297     306      32
     300     297     303       5     300     297     306      32     297     306
     309      31     294     288     297      42     291     288     294       5
     291     288     297      42     288     297     300      42     288     297
     303      42     285     279     288      44     282     279     285      45
     282     279     288      44     279     288     291      42     279     288
     294      42     276     279     282      48     276     279     285      48
     276     306     309      23     360     366     369       2     354     348
     357       5     351     348     354       5     351     348     357       5
     342     336     345       5     339     336     342       5     339     336
     345       5     333     330     336       9     333     330     348       9
     330     336     339      10     330     336     342      10     330     336
     345      10     330     348     351      10     330     348     354      10
     330     348     357      10     327     324     330      51     327     324
     360      17     324     330     333      52     321     318     324      22
     318     324     327      23     423     429     432       2     414     411
     417      26     411     417     420      26     402     405     408      38
     402     411     414      39     399     396     402      39     393     390
     396      26     390     396     399      26     387     390     393      26
     387     417     420      26     384     378     387      28     381     378
     384       5     381     378     387      28     375     372     378      31
     375     372     423      17     372     378     381      32     372     378
     384      32     369     366     372      22     366     372     375      23
     471     477     480       2     465     459     468       5     462     459
     465       5     462     459     468       5     453     447     456       5
     450     447     453       5     450     447     456       5     444     441
     447       9     444     441     459       9     441     447     450      10
     441     447     453      10     441     447     456      10     441     459
     462      10     441     459     465      10     441     459     468      10
     438     435     441      51     438     435     471      17     435     441
     444      52     432     429     435      22     429     435     438      23
     489     483     492      45     486     483     489      45     486     483
     492      45     480     477     483      55     477     483     486      48
     477     483     489      48     477     483     492      48
%FLAG ANGLES_WITHOUT_HYDROGEN                                                   
%FORMAT(10I8)                                                                   
      15      12      18       1      12      18      24       3       3      12
      15       6       3      12      18       7      72      69      75       1
      69      75      81       3      45      39      57       8      30      24
      69      13      30      39      45      15      30      39      57      15
      24      30      39      19      24      69      72      20      24      69
      75      21      18      24      30      24      18      24      69      25
     129     126     132       1     126     132     138       3     102      96
     114       8      87      81     126      13      87      96     102      15
      87      96     114      15      81      87      96      19      81     126
     129      20      81     126     132      21      75      81      87      24
      75      81     126      25     189     186     192       1     186     192
     198       3     168     174     180      27     162     168     174      27
     156     153     180      27     156     162     168      27     153     156
     162      27     153     180     174      27     144     138     186      29
     144     153     156      30     144     153     180      30     138     144
     153      33     138     186     189      20     138     186     192      21
     132     138     144      34     132     138     186      25     210     207
     213       1     207     213     219       3     198     207     210      20
     198     207     213      21     192     198     207      25     273     270
     276       1     270     276     279      36     270     276     306       3
     252     249     258      37     249     258     264      40     243     249
     252      37     243     249     258      41     237     234     264      27
     237     243     249      40     234     237     243      27     234     264
     258      27     225     219     270      29     225     234     237      30
     225     234     264      30     219     225     234      33     219     270
     273      20     219     270     276      21     213     219     225      34
     213     219     270      25     315     312     318       1     312     318
     324       3     306     312     315      20     306     312     318      21
     297     306     312      29     288     297     306      43     279     276
     306      46     279     288     297      47     276     279     288      49
     276     306     297      34     276     306     312      25     363     360
     366       1     360     366     372       3     336     330     348       8
     330     324     360      50     324     330     336      53     324     330
     348      53     324     360     363      20     324     360     366      21
     318     324     330      54     318     324     360      25     426     423
     429       1     423     429     435       3     405     402     411      37
     402     411     417      40     396     402     405      37     396     402
     411      41     390     387     417      27     390     396     402      40
     387     390     396      27     387     417     411      27     378     372
     423      29     378     387     390      30     378     387     417      30
     372     378     387      33     372     423     426      20     372     423
     429      21     366     372     378      34     366     372     423      25
     474     471     477       1     471     477     483      36     447     441
     459       8     441     435     471      50     435     441     447      53
     435     441     459      53     435     471     474      20     435     471
     477      21     429     435     441      54     429     435     471      25
%FLAG DIHEDRALS_INC_HYDROGEN                                                    
%FORMAT(10I8)                                                                   
      15      12      18      21       1      15      12     -18      21       2
      12      18      24      27       3       9       3      12      15       7
       9       3     -12      15       3       9       3     -12      15       8
       9       3      12      18       3       6       3      12      15       7
       6       3     -12      15       3       6       3     -12      15       8
       6       3      12      18       3       3      12      18      21       2
       0       3      12      15       7       0       3     -12      15       3
       0       3     -12      15       8       0       3      12      18       3
      72      69      75      78       1      72      69     -75      78       2
      69      75      81      84       3      54      45      39      57       9
      51      45      39      57       9      48      45      39      57       9
      45      39      57      60       9      45      39      57      63       9
      45      39      57      66       9      42      39      45      48      10
      42      39      45      51      10      42      39      45      54      10
      42      39      57      60      10      42      39      57      63      10
      42      39      57      66      10      36      30      24      69      15
      36      30      39      42      10      36      30      39      45       9
      36      30      39      57       9      33      30      24      69      15
      33      30      39      42      10      33      30      39      45       9
      33      30      39      57       9      30      39      45      48       9
      30      39      45      51       9      30      39      45      54       9
      30      39      57      60       9      30      39      57      63       9
      30      39      57      66       9      27      24      30      33      15
      27      24      30      36      15      27      24      30      39      15
      27      24      69      72       4      27      24     -69      72       3
      27      24     -69      72      16      27      24      69      75       3
      24      30      39      42       9      24      69      75      78       2
      21      18      24      27       3      21      18      24      30       3
      21      18      24      69       3      18      24      30      33      15
      18      24      30      36      15     129     126     132     135       1
     129     126    -132     135       2     126     132     138     141       3
     111     102      96     114       9     108     102      96     114       9
     105     102      96     114       9     102      96     114     117       9
     102      96     114     120       9     102      96     114     123       9
      99      96     102     105      10      99      96     102     108      10
      99      96     102     111      10      99      96     114     117      10
      99      96     114     120      10      99      96     114     123      10
      93      87      81     126      15      93      87      96      99      10
      93      87      96     102       9      93      87      96     114       9
      90      87      81     126      15      90      87      96      99      10
      90      87      96     102       9      90      87      96     114       9
      87      96     102     105       9      87      96     102     108       9
      87      96     102     111       9      87      96     114     117       9
      87      96     114     120       9      87      96     114     123       9
      84      81      87      90      15      84      81      87      93      15
      84      81      87      96      15      84      81     126     129       4
      84      81    -126     129       3      84      81    -126     129      16
      84      81     126     132       3      81      87      96      99       9
      81     126     132     135       2      78      75      81      84       3
      78      75      81      87       3      78      75      81     126       3
      75      81      87      90      15      75      81      87      93      15
     189     186     192     195       1     189     186    -192     195       2
     186     192     198     201       3     186     192     198     204       3
     177     174     180     183      26     171     168     174     177      26
     171     168     174     180      26     168     174     180     183      26
     165     162     168     171      26     165     162     168     174      26
     162     168     174     177      26     159     156     153     180      26
     159     156     162     165      26     159     156     162     168      26
     156     153     180     183      26     156     162     168     171      26
     153     156     162     165      26     153     180     174     177      26
     150     144     138     186      15     150     144     153     156       3
     150     144     153     180       3     147     144     138     186      15
     147     144     153     156       3     147     144     153     180       3
     144     153     156     159      26     144     153     180     183      26
     141     138     144     147      15     141     138     144     150      15
     141     138     144     153      15     141     138     186     189       4
     141     138    -186     189       3     141     138    -186     189      16
     141     138     186     192       3     138     186     192     195       2
     135     132     138     141       3     135     132     138     144       3
     135     132     138     186       3     132     138     144     147      15
     132     138     144     150      15     210     207     213     216       1
     210     207    -213     216       2     207     213     219     222       3
     204     198     207     210       4     204     198    -207     210       3
     204     198    -207     210      16     204     198     207     213       3
     201     198     207     210       4     201     198    -207     210       3
     201     198    -207     210      16     201     198     207     213       3
     198     207     213     216       2     195     192     198     201       3
     195     192     198     204       3     195     192     198     207       3
     270     276     279     282       3     270     276     279     285       3
     270     276     306     309       3     261     258     264     267      26
     255     252     249     258       4     255     252    -249     258      38
     255     252    -249     258       5     255     252    -249     258      39
     252     249     258     261      26     249     258     264     267      26
     246     243     249     252      26     246     243     249     258      26
     243     249     252     255       4     243     249    -252     255      38
     243     249    -252     255       5     243     249    -252     255      39
     243     249     258     261      26     240     237     234     264      26
     240     237     243     246      26     240     237     243     249      26
     237     234     264     267      26     234     237     243     246      26
     234     264     258     261      26     231     225     219     270      15
     231     225     234     237       3     231     225     234     264       3
     228     225     219     270      15     228     225     234     237       3
     228     225     234     264       3     225     234     237     240      26
     225     234     264     267      26     222     219     225     228      15
     222     219     225     231      15     222     219     225     234      15
     222     219     270     273       4     222     219    -270     273       3
     222     219    -270     273      16     222     219     270     276       3
     216     213     219     222       3     216     213     219     225       3
     216     213     219     270       3     213     219     225     228      15
     213     219     225     231      15     315     312     318     321       1
     315     312    -318     321       2     312     318     324     327       3
     309     306     312     315       4     309     306    -312     315       3
     309     306    -312     315      16     309     306     312     318       3
     306     312     318     321       2     303     297     306     309      15
     303     297     306     312      15     300     297     306     309      15
     300     297     306     312      15     294     288     297     300      10
     294     288     297     303      10     294     288     297     306       9
     291     288     297     300      10     291     288     297     303      10
     291     288     297     306       9     288     297     306     309      15
     285     279     276     306       3     285     279     288     291      15
     285     279     288     294      15     285     279     288     297      15
     282     279     276     306       3     282     279     288     291      15
     282     279     288     294      15     282     279     288     297      15
     279     276     306     309       3     279     288     297     300       9
     279     288     297     303       9     276     279     288     291      15
     276     279     288     294      15     276     306     297     300      15
     276     306     297     303      15     363     360     366     369       1
     363     360    -366     369       2     360     366     372     375       3
     345     336     330     348       9     342     336     330     348       9
     339     336     330     348       9     336     330     348     351       9
     336     330     348     354       9     336     330     348     357       9
     333     330     324     360      15     333     330     336     339      10
     333     330     336     342      10     333     330     336     345      10
     333     330     348     351      10     333     330     348     354      10
     333     330     348     357      10     327     324     330     333      15
     327     324     330     336      15     327     324     330     348      15
     327     324     360     363       4     327     324    -360     363       3
     327     324    -360     363      16     327     324     360     366       3
     324     330     336     339       9     324     330     336     342       9
     324     330     336     345       9     324     330     348     351       9
     324     330     348     354       9     324     330     348     357       9
     324     360     366     369       2     321     318     324     327       3
     321     318     324     330       3     321     318     324     360       3
     318     324     330     333      15     426     423     429     432       1
     426     423    -429     432       2     423     429     435     438       3
     414     411     417     420      26     408     405     402     411       4
     408     405    -402     411      38     408     405    -402     411       5
     408     405    -402     411      39     405     402     411     414      26
     402     411     417     420      26     399     396     402     405      26
     399     396     402     411      26     396     402     405     408       4
     396     402    -405     408      38     396     402    -405     408       5
     396     402    -405     408      39     396     402     411     414      26
     393     390     387     417      26     393     390     396     399      26
     393     390     396     402      26     390     387     417     420      26
     387     390     396     399      26     387     417     411     414      26
     384     378     372     423      15     384     378     387     390       3
     384     378     387     417       3     381     378     372     423      15
     381     378     387     390       3     381     378     387     417       3
     378     387     390     393      26     378     387     417     420      26
     375     372     378     381      15     375     372     378     384      15
     375     372     378     387      15     375     372     423     426       4
     375     372    -423     426       3     375     372    -423     426      16
     375     372     423     429       3     372     423     429     432       2
     369     366     372     375       3     369     366     372     378       3
     369     366     372     423       3     366     372     378     381      15
     366     372     378     384      15     474     471     477     480       1
     474     471    -477     480       2     471     477     483     486       3
     471     477     483     489       3     471     477     483     492       3
     456     447     441     459       9     453     447     441     459       9
     450     447     441     459       9     447     441     459     462       9
     447     441     459     465       9     447     441     459     468       9
     444     441     435     471      15     444     441     447     450      10
     444     441     447     453      10     444     441     447     456      10
     444     441     459     462      10     444     441     459     465      10
     444     441     459     468      10     438     435     441     444      15
     438     435     441     447      15     438     435     441     459      15
     438     435     471     474       4     438     435    -471     474       3
     438     435    -471     474      16     438     435     471     477       3
     435     441     447     450       9     435     441     447     453       9
     435     441     447     456       9     435     441     459     462       9
     435     441     459     465       9     435     441     459     468       9
     435     471     477     480       2     432     429     435     438       3
     432     429     435     441       3     432     429     435     471       3
     429     435     441     444      15     480     477     483     486       3
     480     477     483     489       3     480     477     483     492       3
      12      24     -18     -21      51      69      78     -75     -81      51
     153     174    -180    -183      51     168     180    -174    -177      51
     162     174    -168    -171      51     156     168    -162    -165      51
     153     162    -156    -159      51     126     135    -132    -138      51
     186     195    -192    -198      51     234     258    -264    -267      51
     249     264    -258    -261      51     237     249    -243    -246      51
     234     243    -237    -240      51     207     216    -213    -219      51
     312     321    -318    -324      51     387     411    -417    -420      51
     402     417    -411    -414      51     390     402    -396    -399      51
     387     396    -390    -393      51     360     369    -366    -372      51
     423     432    -429    -435      51     471     483    -477    -480      51
%FLAG DIHEDRALS_WITHOUT_HYDROGEN                                                
%FORMAT(10I8)                                                                   
      15      12      18      24       2      12      18      24      30       4
      12      18     -24      30       3      12      18     -24      30       5
      12      18     -24      30       6      12      18      24      69       4
      12      18     -24      69       3      12      18     -24      69       5
      12      18     -24      69       6       3      12      18      24       2
      72      69      75      81       2      69      75      81      87       4
      69      75     -81      87       3      69      75     -81      87       5
      69      75     -81      87       6      69      75      81     126       4
      69      75     -81     126       3      69      75     -81     126       5
      69      75     -81     126       6      39      30      24      69      11
      39      30     -24      69      12      39      30     -24      69      13
      39      30     -24      69      14      30      24      69      72       3
      30      24      69      75       4      30      24     -69      75       3
      30      24     -69      75       5      30      24     -69      75       6
      24      30      39      45      17      24      30     -39      45      18
      24      30     -39      45      19      24      30     -39      45      20
      24      30      39      57      17      24      30     -39      57      18
      24      30     -39      57      19      24      30     -39      57      20
      24      69      75      81       2      18      24      30      39      21
      18      24     -30      39      22      18      24     -30      39      13
      18      24     -30      39      23      18      24      69      72       3
      18      24      69      75      24      18      24     -69      75      25
      18      24     -69      75      16      18      24     -69      75       6
     129     126     132     138       2     126     132     138     144       4
     126     132    -138     144       3     126     132    -138     144       5
     126     132    -138     144       6     126     132     138     186       4
     126     132    -138     186       3     126     132    -138     186       5
     126     132    -138     186       6      96      87      81     126      11
      96      87     -81     126      12      96      87     -81     126      13
      96      87     -81     126      14      87      81     126     129       3
      87      81     126     132       4      87      81    -126     132       3
      87      81    -126     132       5      87      81    -126     132       6
      81      87      96     102      17      81      87     -96     102      18
      81      87     -96     102      19      81      87     -96     102      20
      81      87      96     114      17      81      87     -96     114      18
      81      87     -96     114      19      81      87     -96     114      20
      81     126     132     138       2      75      81      87      96      21
      75      81     -87      96      22      75      81     -87      96      13
      75      81     -87      96      23      75      81     126     129       3
      75      81     126     132      24      75      81    -126     132      25
      75      81    -126     132      16      75      81    -126     132       6
     189     186     192     198       2     186     192     198     207       4
     186     192    -198     207       3     186     192    -198     207       5
     186     192    -198     207       6     162     156     153     180      26
     162     168    -174     180      26     156     153     180     174      26
     156     162    -168     174      26     153     144     138     186      27
     153     144    -138     186      28     153     144    -138     186      29
     153     144    -138     186      30     153     156     162     168      26
     153     180    -174     168      26     144     138     186     189       3
     144     138     186     192       4     144     138    -186     192       3
     144     138    -186     192       5     144     138    -186     192       6
     144     153     156     162      26     144     153     180     174      26
     138     144     153     156       4     138     144    -153     156      31
     138     144    -153     156       5     138     144    -153     156      32
     138     144     153     180       4     138     144    -153     180      31
     138     144    -153     180       5     138     144    -153     180      32
     138     186     192     198       2     132     138     144     153      33
     132     138    -144     153      34     132     138    -144     153      29
     132     138    -144     153      35     132     138     186     189       3
     132     138     186     192      24     132     138    -186     192      25
     132     138    -186     192      16     132     138    -186     192       6
     210     207     213     219       2     207     213     219     225       4
     207     213    -219     225       3     207     213    -219     225       5
     207     213    -219     225       6     207     213     219     270       4
     207     213    -219     270       3     207     213    -219     270       5
     207     213    -219     270       6     198     207     213     219       2
     192     198     207     210       3     192     198     207     213      24
     192     198    -207     213      25     192     198    -207     213      16
     192     198    -207     213       6     273     270     276     279       2
     273     270     276     306       2     270     276     279     288       1
     270     276    -279     288      36     270     276    -279     288      37
     270     276    -279     288       6     270     276     306     297       4
     270     276    -306     297       3     270     276    -306     297       5
     270     276    -306     297       6     270     276     306     312       4
     270     276    -306     312       3     270     276    -306     312       5
     270     276    -306     312       6     252     249     258     264      26
     243     237     234     264      26     243     249    -258     264      26
     237     234     264     258      26     237     243     249     252      26
     237     243    -249     258      26     234     225     219     270      27
     234     225    -219     270      28     234     225    -219     270      29
     234     225    -219     270      30     234     237     243     249      26
     234     264    -258     249      26     225     219     270     273       3
     225     219     270     276       4     225     219    -270     276       3
     225     219    -270     276       5     225     219    -270     276       6
     225     234     237     243      26     225     234     264     258      26
     219     225     234     237       4     219     225    -234     237      31
     219     225    -234     237       5     219     225    -234     237      32
     219     225     234     264       4     219     225    -234     264      31
     219     225    -234     264       5     219     225    -234     264      32
     219     270     276     279       2     219     270     276     306       2
     213     219     225     234      33     213     219    -225     234      34
     213     219    -225     234      29     213     219    -225     234      35
     213     219     270     273       3     213     219     270     276      24
     213     219    -270     276      25     213     219    -270     276      16
     213     219    -270     276       6     315     312     318     324       2
     312     318     324     330       4     312     318    -324     330       3
     312     318    -324     330       5     312     318    -324     330       6
     312     318     324     360       4     312     318    -324     360       3
     312     318    -324     360       5     312     318    -324     360       6
     306     312     318     324       2     297     306     312     315       3
     297     306     312     318       4     297     306    -312     318       3
     297     306    -312     318       5     297     306    -312     318       6
     288     279    -276     306       3     288     297     306     312      15
     279     276    -306     297       3     279     276     306     312       3
     279     288    -297     306      40     279     288    -297     306      41
     279     288    -297     306      42     276     279    -288     297      15
     276     306    -297     288      15     276     306     312     315       3
     276     306     312     318      24     276     306    -312     318      25
     276     306    -312     318      16     276     306    -312     318       6
     363     360     366     372       2     360     366     372     378       4
     360     366    -372     378       3     360     366    -372     378       5
     360     366    -372     378       6     360     366     372     423       4
     360     366    -372     423       3     360     366    -372     423       5
     360     366    -372     423       6     348     330     324     360      43
     348     330    -324     360      44     348     330    -324     360      45
     348     330    -324     360      46     336     330     324     360      43
     336     330    -324     360      44     336     330    -324     360      45
     336     330    -324     360      46     330     324     360     363       3
     330     324     360     366       4     330     324    -360     366       3
     330     324    -360     366       5     330     324    -360     366       6
     324     360     366     372       2     318     324     330     336      47
     318     324    -330     336      48     318     324    -330     336      45
     318     324    -330     336      49     318     324     330     348      47
     318     324    -330     348      48     318     324    -330     348      45
     318     324    -330     348      49     318     324     360     363       3
     318     324     360     366      24     318     324    -360     366      25
     318     324    -360     366      16     318     324    -360     366       6
     426     423     429     435       2     423     429     435     441       4
     423     429    -435     441       3     423     429    -435     441       5
     423     429    -435     441       6     423     429     435     471       4
     423     429    -435     471       3     423     429    -435     471       5
     423     429    -435     471       6     405     402     411     417      26
     396     390     387     417      26     396     402    -411     417      26
     390     387     417     411      26     390     396     402     405      26
     390     396    -402     411      26     387     378     372     423      27
     387     378    -372     423      28     387     378    -372     423      29
     387     378    -372     423      30     387     390     396     402      26
     387     417    -411     402      26     378     372     423     426       3
     378     372     423     429       4     378     372    -423     429       3
     378     372    -423     429       5     378     372    -423     429       6
     378     387     390     396      26     378     387     417     411      26
     372     378     387     390       4     372     378    -387     390      31
     372     378    -387     390       5     372     378    -387     390      32
     372     378     387     417       4     372     378    -387     417      31
     372     378    -387     417       5     372     378    -387     417      32
     372     423     429     435       2     366     372     378     387      33
     366     372    -378     387      34     366     372    -378     387      29
     366     372    -378     387      35     366     372     423     426       3
     366     372     423     429      24     366     372    -423     429      25
     366     372    -423     429      16     366     372    -423     429       6
     474     471     477     483       2     459     441     435     471      43
     459     441    -435     471      44     459     441    -435     471      45
     459     441    -435     471      46     447     441     435     471      43
     447     441    -435     471      44     447     441    -435     471      45
     447     441    -435     471      46     441     435     471     474       3
     441     435     471     477       4     441     435    -471     477       3
     441     435    -471     477       5     441     435    -471     477       6
     435     471     477     483       2     429     435     441     447      47
     429     435    -441     447      48     429     435    -441     447      45
     429     435    -441     447      49     429     435     441     459      47
     429     435    -441     459      48     429     435    -441     459      45
     429     435    -441     459      49     429     435     471     474       3
     429     435     471     477      24     429     435    -471     477      25
     429     435    -471     477      16     429     435    -471     477       6
       3      18     -12     -15      50      24      75     -69     -72      50
      81     132    -126    -129      50     138     192    -186    -189      50
     156     180    -153    -144      51     198     213    -207    -210      50
     219     276    -270    -273      50     243     258    -249    -252      51
     237     264    -234    -225      51     306     318    -312    -315      50
     270     279    -276    -306      52     324     366    -360    -363      50
     372     429    -423    -426      50     396     411    -402    -405      51
     390     417    -387    -378      51     435     477    -471    -474      50
%FLAG EXCLUDED_ATOMS_LIST                                                       
%FORMAT(10I8)                                                                   
       2       3       4       5       6       7       3       4       5       6
       7       8       9       4       5       6       7       5       6       7
       6       7       8       9      10      11      24       7       8       9
       8       9      10      11      12      13      14      24      25      26
       9      10      11      24      10      11      12      13      14      15
      16      20      24      25      26      27      28      11      12      13
      14      24      25      26      12      13      14      15      16      17
      18      19      20      21      22      23      24      25      26      13
      14      15      16      20      24      14      15      16      20      24
      15      16      17      18      19      20      21      22      23      24
      16      17      18      19      20      21      22      23      17      18
      19      20      21      22      23      18      19      20      19      20
      20      21      22      23      22      23      23       0      25      26
      27      28      29      30      43      26      27      28      27      28
      29      30      31      32      33      43      44      45      28      29
      30      43      29      30      31      32      33      34      35      39
      43      44      45      46      47      30      31      32      33      43
      44      45      31      32      33      34      35      36      37      38
      39      40      41      42      43      44      45      32      33      34
      35      39      43      33      34      35      39      43      34      35
      36      37      38      39      40      41      42      43      35      36
      37      38      39      40      41      42      36      37      38      39
      40      41      42      37      38      39      38      39      39      40
      41      42      41      42      42       0      44      45      46      47
      48      49      63      45      46      47      46      47      48      49
      50      51      52      63      64      65      47      48      49      63
      48      49      50      51      52      53      61      63      64      65
      66      67      49      50      51      52      63      64      65      50
      51      52      53      54      55      59      61      62      63      64
      65      51      52      53      61      63      52      53      61      63
      53      54      55      56      57      59      60      61      62      63
      54      55      56      57      58      59      61      62      55      56
      57      61      56      57      58      59      60      61      57      58
      59      58      59      60      61      62      59      60      61      60
      61      62      61      62      62       0      64      65      66      67
      68      69      70      65      66      67      66      67      68      69
      70      71      72      67      68      69      70      68      69      70
      71      72      73      74      69      70      71      72      70      71
      72      71      72      73      74      75      76      91      72      73
      74      73      74      75      76      77      78      79      91      92
      93      74      75      76      91      75      76      77      78      79
      80      89      91      92      93      94     103      76      77      78
      79      91      92      93      77      78      79      80      81      82
      87      89      90      91      92      93      78      79      80      89
      91      79      80      89      91      80      81      82      83      84
      87      88      89      90      91      81      82      83      84      85
      87      89      90      82      83      84      89      83      84      85
      86      87      88      89      84      85      87      85      86      87
      88      89      90      86      87      88      89      87      88      89
      90      89      90      90       0      92      93      94      95      96
      97     100     103     104     105      93      94     103      94      95
      96      97      98      99     100     101     102     103     104     105
     106     107      95      96      97      98      99     100     101     102
     103     104     105      96      97      98      99     100     103      97
      98      99     100     103      98      99     100     101     102     103
     104     105      99     100     101     102     103     100     101     102
     103     101     102     103     104     105     106     107     102     103
     104     105     103     104     105     104     105     106     107     108
     109     105     106     107     106     107     108     109     110     111
     121     107     108     109     108     109     110     111     112     113
     117     121     122     123     109     110     111     121     110     111
     112     113     114     115     116     117     118     119     120     121
     122     123     124     125     111     112     113     117     121     122
     123     112     113     114     115     116     117     118     119     120
     121     122     123     113     114     115     116     117     118     119
     120     121     114     115     116     117     118     119     120     121
     115     116     117     116     117     117     118     119     120     121
     119     120     120       0     122     123     124     125     126     127
     142     123     124     125     124     125     126     127     128     129
     130     142     143     144     125     126     127     142     126     127
     128     129     130     131     140     142     143     144     145     146
     127     128     129     130     142     143     144     128     129     130
     131     132     133     138     140     141     142     143     144     129
     130     131     140     142     130     131     140     142     131     132
     133     134     135     138     139     140     141     142     132     133
     134     135     136     138     140     141     133     134     135     140
     134     135     136     137     138     139     140     135     136     138
     136     137     138     139     140     141     137     138     139     140
     138     139     140     141     140     141     141       0     143     144
     145     146     147     148     158     144     145     146     145     146
     147     148     149     150     154     158     159     160     146     147
     148     158     147     148     149     150     151     152     153     154
     155     156     157     158     159     160     161     162     148     149
     150     154     158     159     160     149     150     151     152     153
     154     155     156     157     158     159     160     150     151     152
     153     154     155     156     157     158     151     152     153     154
     155     156     157     158     152     153     154     153     154     154
     155     156     157     158     156     157     157       0     159     160
     161     162     163     164     165     160     161     162     161     162
     163     164     165     162     163     164     165     163     164     165
     164     165     165       0
%FLAG HBOND_ACOEF                                                               
%FORMAT(5E16.8)                                                                 

%FLAG HBOND_BCOEF                                                               
%FORMAT(5E16.8)                                                                 

%FLAG HBCUT                                                                     
%FORMAT(5E16.8)                                                                 

%FLAG AMBER_ATOM_TYPE                                                           
%FORMAT(20a4)                                                                   
HC  CT  HC  HC  C   O   N   H   XC  H1  2C  HC  HC  3C  HC  CT  HC  HC  HC  CT  
HC  HC  HC  C   O   N   H   XC  H1  2C  HC  HC  3C  HC  CT  HC  HC  HC  CT  HC  
HC  HC  C   O   N   H   XC  H1  CT  HC  HC  CA  CA  HA  CA  HA  CA  HA  CA  HA  
CA  HA  C   O   N   H   XC  H1  H1  C   O   N   H   XC  H1  CT  HC  HC  CA  CA  
HA  CA  HA  C   OH  HO  CA  HA  CA  HA  C   O   N   CT  H1  H1  CT  HC  HC  CT  
HC  HC  XC  H1  C   O   N   H   XC  H1  3C  HC  CT  HC  HC  HC  CT  HC  HC  HC  
C   O   N   H   XC  H1  CT  HC  HC  CA  CA  HA  CA  HA  C   OH  HO  CA  HA  CA  
HA  C   O   N   H   XC  H1  3C  HC  CT  HC  HC  HC  CT  HC  HC  HC  C   O   N   
H   CT  H1  H1  H1  
%FLAG TREE_CHAIN_CLASSIFICATION                                                 
%FORMAT(20a4)                                                                   
M   M   E   E   M   E   M   E   M   E   3   E   E   3   E   3   E   E   E   3   
E   E   E   M   E   M   E   M   E   3   E   E   3   E   3   E   E   E   3   E   
E   E   M   E   M   E   M   E   3   E   E   B   B   E   B   E   B   E   S   E   
S   E   M   E   M   E   M   E   E   M   E   M   E   M   E   3   E   E   B   B   
E   B   E   B   S   E   S   E   S   E   M   E   M   3   E   E   3   E   E   B   
E   E   M   E   M   E   M   E   M   E   3   E   3   E   E   E   3   E   E   E   
M   E   M   E   M   E   3   E   E   B   B   E   B   E   B   S   E   S   E   S   
E   M   E   M   E   M   E   3   E   3   E   E   E   3   E   E   E   M   E   M   
E   M   E   E   E   
%FLAG JOIN_ARRAY                                                                
%FORMAT(10I8)                                                                   
       0       0       0       0       0       0       0       0       0       0
       0       0       0       0       0       0       0       0       0       0
       0       0       0       0       0       0       0       0       0       0
       0       0       0       0       0       0       0       0       0       0
       0       0       0       0       0       0       0       0       0       0
       0       0       0       0       0       0       0       0       0       0
       0       0       0       0       0       0       0       0       0       0
       0       0       0       0       0       0       0       0       0       0
       0       0       0       0       0       0       0       0       0       0
       0       0       0       0       0       0       0       0       0       0
       0       0       0       0       0       0       0       0       0       0
       0       0       0       0       0       0       0       0       0       0
       0       0       0       0       0       0       0       0       0       0
       0       0       0       0       0       0       0       0       0       0
       0       0       0       0       0       0       0       0       0       0
       0       0       0       0       0       0       0       0       0       0
       0       0       0       0       0
%FLAG IROTAT                                                                    
%FORMAT(10I8)                                                                   
       0       0       0       0       0       0       0       0       0       0
       0       0       0       0       0       0       0       0       0       0
       0       0       0       0       0       0       0       0       0       0
       0       0       0       0       0       0       0       0       0       0
       0       0       0       0       0       0       0       0       0       0
       0       0       0       0       0       0       0       0       0       0
       0       0       0       0       0       0       0       0       0       0
       0       0       0       0       0       0       0       0       0       0
       0       0       0       0       0       0       0       0       0       0
       0       0       0       0       0       0       0       0       0       0
       0       0       0       0       0       0       0       0       0       0
       0       0       0       0       0       0       0       0       0       0
       0       0       0       0       0       0       0       0       0       0
       0       0       0       0       0       0       0       0       0       0
       0       0       0       0       0       0       0       0       0       0
       0       0       0       0       0       0       0       0       0       0
       0       0       0       0       0
%FLAG RADIUS_SET                                                                
%FORMAT(1a80)                                                                   
modified Bondi radii (mbondi)                                                   
%FLAG RADII                                                                     
%FORMAT(5E16.8)                                                                 
  1.30000000E+00  1.70000000E+00  1.30000000E+00  1.30000000E+00  1.70000000E+00
  1.50000000E+00  1.55000000E+00  1.30000000E+00  1.70000000E+00  1.30000000E+00
  1.70000000E+00  1.30000000E+00  1.30000000E+00  1.70000000E+00  1.30000000E+00
  1.70000000E+00  1.30000000E+00  1.30000000E+00  1.30000000E+00  1.70000000E+00
  1.30000000E+00  1.30000000E+00  1.30000000E+00  1.70000000E+00  1.50000000E+00
  1.55000000E+00  1.30000000E+00  1.70000000E+00  1.30000000E+00  1.70000000E+00
  1.30000000E+00  1.30000000E+00  1.70000000E+00  1.30000000E+00  1.70000000E+00
  1.30000000E+00  1.30000000E+00  1.30000000E+00  1.70000000E+00  1.30000000E+00
  1.30000000E+00  1.30000000E+00  1.70000000E+00  1.50000000E+00  1.55000000E+00
  1.30000000E+00  1.70000000E+00  1.30000000E+00  1.70000000E+00  1.30000000E+00
  1.30000000E+00  1.70000000E+00  1.70000000E+00  1.30000000E+00  1.70000000E+00
  1.30000000E+00  1.70000000E+00  1.30000000E+00  1.70000000E+00  1.30000000E+00
  1.70000000E+00  1.30000000E+00  1.70000000E+00  1.50000000E+00  1.55000000E+00
  1.30000000E+00  1.70000000E+00  1.30000000E+00  1.30000000E+00  1.70000000E+00
  1.50000000E+00  1.55000000E+00  1.30000000E+00  1.70000000E+00  1.30000000E+00
  1.70000000E+00  1.30000000E+00  1.30000000E+00  1.70000000E+00  1.70000000E+00
  1.30000000E+00  1.70000000E+00  1.30000000E+00  1.70000000E+00  1.50000000E+00
  8.00000000E-01  1.70000000E+00  1.30000000E+00  1.70000000E+00  1.30000000E+00
  1.70000000E+00  1.50000000E+00  1.55000000E+00  1.70000000E+00  1.30000000E+00
  1.30000000E+00  1.70000000E+00  1.30000000E+00  1.30000000E+00  1.70000000E+00
  1.30000000E+00  1.30000000E+00  1.70000000E+00  1.30000000E+00  1.70000000E+00
  1.50000000E+00  1.55000000E+00  1.30000000E+00  1.70000000E+00  1.30000000E+00
  1.70000000E+00  1.30000000E+00  1.70000000E+00  1.30000000E+00  1.30000000E+00
  1.30000000E+00  1.70000000E+00  1.30000000E+00  1.30000000E+00  1.30000000E+00
  1.70000000E+00  1.50000000E+00  1.55000000E+00  1.30000000E+00  1.70000000E+00
  1.30000000E+00  1.70000000E+00  1.30000000E+00  1.30000000E+00  1.70000000E+00
  1.70000000E+00  1.30000000E+00  1.70000000E+00  1.30000000E+00  1.70000000E+00
  1.50000000E+00  8.00000000E-01  1.70000000E+00  1.30000000E+00  1.70000000E+00
  1.30000000E+00  1.70000000E+00  1.50000000E+00  1.55000000E+00  1.30000000E+00
  1.70000000E+00  1.30000000E+00  1.70000000E+00  1.30000000E+00  1.70000000E+00
  1.30000000E+00  1.30000000E+00  1.30000000E+00  1.70000000E+00  1.30000000E+00
  1.30000000E+00  1.30000000E+00  1.70000000E+00  1.50000000E+00  1.55000000E+00
  1.30000000E+00  1.70000000E+00  1.30000000E+00  1.30000000E+00  1.30000000E+00
%FLAG SCREEN                                                                    
%FORMAT(5E16.8)                                                                 
  8.50000000E-01  7.20000000E-01  8.50000000E-01  8.50000000E-01  7.20000000E-01
  8.50000000E-01  7.90000000E-01  8.50000000E-01  7.20000000E-01  8.50000000E-01
  7.20000000E-01  8.50000000E-01  8.50000000E-01  7.20000000E-01  8.50000000E-01
  7.20000000E-01  8.50000000E-01  8.50000000E-01  8.50000000E-01  7.20000000E-01
  8.50000000E-01  8.50000000E-01  8.50000000E-01  7.20000000E-01  8.50000000E-01
  7.90000000E-01  8.50000000E-01  7.20000000E-01  8.50000000E-01  7.20000000E-01
  8.50000000E-01  8.50000000E-01  7.20000000E-01  8.50000000E-01  7.20000000E-01
  8.50000000E-01  8.50000000E-01  8.50000000E-01  7.20000000E-01  8.50000000E-01
  8.50000000E-01  8.50000000E-01  7.20000000E-01  8.50000000E-01  7.90000000E-01
  8.50000000E-01  7.20000000E-01  8.50000000E-01  7.20000000E-01  8.50000000E-01
  8.50000000E-01  7.20000000E-01  7.20000000E-01  8.50000000E-01  7.20000000E-01
  8.50000000E-01  7.20000000E-01  8.50000000E-01  7.20000000E-01  8.50000000E-01
  7.20000000E-01  8.50000000E-01  7.20000000E-01  8.50000000E-01  7.90000000E-01
  8.50000000E-01  7.20000000E-01  8.50000000E-01  8.50000000E-01  7.20000000E-01
  8.50000000E-01  7.90000000E-01  8.50000000E-01  7.20000000E-01  8.50000000E-01
  7.20000000E-01  8.50000000E-01  8.50000000E-01  7.20000000E-01  7.20000000E-01
  8.50000000E-01  7.20000000E-01  8.50000000E-01  7.20000000E-01  8.50000000E-01
  8.50000000E-01  7.20000000E-01  8.50000000E-01  7.20000000E-01  8.50000000E-01
  7.20000000E-01  8.50000000E-01  7.90000000E-01  7.20000000E-01  8.50000000E-01
  8.50000000E-01  7.20000000E-01  8.50000000E-01  8.50000000E-01  7.20000000E-01
  8.50000000E-01  8.50000000E-01  7.20000000E-01  8.50000000E-01  7.20000000E-01
  8.50000000E-01  7.90000000E-01  8.50000000E-01  7.20000000E-01  8.50000000E-01
  7.20000000E-01  8.50000000E-01  7.20000000E-01  8.50000000E-01  8.50000000E-01
  8.50000000E-01  7.20000000E-01  8.50000000E-01  8.50000000E-01  8.50000000E-01
  7.20000000E-01  8.50000000E-01  7.90000000E-01  8.50000000E-01  7.20000000E-01
  8.50000000E-01  7.20000000E-01  8.50000000E-01  8.50000000E-01  7.20000000E-01
  7.20000000E-01  8.50000000E-01  7.20000000E-01  8.50000000E-01  7.20000000E-01
  8.50000000E-01  8.50000000E-01  7.20000000E-01  8.50000000E-01  7.20000000E-01
  8.50000000E-01  7.20000000E-01  8.50000000E-01  7.90000000E-01  8.50000000E-01
  7.20000000E-01  8.50000000E-01  7.20000000E-01  8.50000000E-01  7.20000000E-01
  8.50000000E-01  8.50000000E-01  8.50000000E-01  7.20000000E-01  8.50000000E-01
  8.50000000E-01  8.50000000E-01  7.20000000E-01  8.50000000E-01  7.90000000E-01
  8.50000000E-01  7.20000000E-01  8.50000000E-01  8.50000000E-01  8.50000000E-01
%FLAG IPOL                                                                      
%FORMAT(1I8)                                                                    
       0
%FLAG CMAP_COUNT                                                                
%FORMAT(2I8)                                                                    
       9       4                                                                
%FLAG CMAP_RESOLUTION                                                           
%FORMAT(20I4)                                                                   
  24  24  24  24
%FLAG CMAP_PARAMETER_01                                                         
%COMMENT  Gly CMAP                                                              
%FORMAT(8F9.5)                                                                  
  0.82366  1.09817  1.13106  1.38658  2.11377  3.63194  5.20835  4.52792
  4.24857  3.42100  2.57125  2.21561  4.26659  2.21561  2.57125  3.42110
  4.24858  4.52792  4.29107  3.63184  2.03731  1.32036  1.12797  1.09814
  1.01976  0.89767  0.89484  1.21525  1.97095  3.70570  4.38855  4.65256
  4.43948  3.89754  4.21954  2.92219  1.83300  1.61528  2.13407  3.13273
  4.03304  4.37836  4.21500  3.54162  2.14871  1.44646  1.20387  1.08264
  0.94294  0.79652  0.83328  1.24136  2.06053  3.43883  4.17385  4.53101
  4.43115  4.03641  3.71837  2.02965  1.28863  1.21833  1.89263  2.85593
  4.80291  4.23497  4.08718  3.49858  2.17811  1.53114  1.22608  1.06909
  1.06124  0.90425  0.95129  1.35925  1.80900  3.18916  3.85055  4.27470
  4.17515  3.68355  2.71193  1.96823  0.88051  1.02084  1.59189  2.52883
  3.47767  4.03244  3.86779  3.39508  2.23969  1.66969  1.33019  1.16679
  1.08157  1.02005  1.10493  1.29605  1.79270  2.88632  3.63402  4.05349
  3.97657  3.35415  2.24207  1.18576  0.74267  0.67495  1.31122  2.24278
  3.21905  3.69186  4.76949  4.00571  2.34764  1.77622  1.34849  1.12849
  1.09360  0.76295  0.64220  1.00733  1.73708  2.50787  3.41571  4.45847
  3.84910  3.11193  1.97839  1.18177  0.33803  0.43176  1.23577  2.17947
  2.92428  3.38497  3.39138  3.10177  3.35228  2.15282  1.45287  1.28536
  0.61764  0.23640  0.15650  0.65857  1.56522  2.44967  3.17669  3.78043
  4.22216  2.79953  1.66579  0.59084  0.15579  0.43594  1.52040  2.27449
  2.76979  3.16911  3.12455  2.92674  2.45824  1.88927  1.36443  0.95121
 -0.00243 -0.14438  0.06931  0.84132  1.89921  2.91978  3.46170  3.60722
  3.77366  2.18724  1.52870  0.20777  0.22187  1.10049  2.08960  2.88893
  3.46272  3.66327  3.40280  3.02172  2.23074  1.32476  0.62376  0.25154
 -0.24862  0.05886  0.73935  1.98217  3.25167  4.06285  4.21447  3.90130
  2.90300  1.70374  0.74057  0.52755  1.12943  2.10802  2.78056  3.65981
  4.30377  4.58476  4.35318  3.65296  2.33204  0.81283  0.00000 -0.29835
  0.44379  1.32981  2.39709  3.82578  5.02459  5.42450  4.99639  4.00610
  2.64886  1.63847  1.37610  1.71448  2.28503  2.64949  3.24747  4.17266
  5.17265  5.75041  5.58476  4.21912  2.20540  0.64843  0.02065 -0.08593
  2.15530  3.40478  4.51993  5.80241  6.12627  6.00746  5.12631  4.58197
  2.80154  2.55737  2.87599  2.95502  2.71629  2.60279  3.64721  4.53964
  5.90407  6.82108  6.15044  4.18011  2.15201  0.96807  0.81255  1.19704
  4.21011  5.19583  5.45356  5.26216  5.22957  4.91772  4.44698  3.93537
  3.74038  4.11322  3.92595  2.94210  2.11295  2.42266  3.12536  4.83315
  6.43292  6.19670  5.13463  3.65052  2.40663  2.07125  2.29840  3.03351
  5.33877  4.55338  3.87255  3.87071  3.62149  3.87069  4.31250  4.77933
  5.37137  5.20874  3.65026  2.18763  2.20027  2.18700  3.65026  5.21405
  5.24065  4.77943  4.31250  3.87553  3.63325  5.19982  3.88530  4.53465
  4.20747  3.02450  2.29840  2.07135  2.40664  3.65062  5.13204  6.19680
  6.43292  4.83351  3.12587  2.96667  2.11029  2.93241  3.92594  4.11322
  3.74082  3.93551  4.44698  4.92068  5.53058  5.24416  5.35209  5.19605
  2.15668  1.19704  0.81255  0.96806  2.15211  4.17062  6.15034  6.82108
  5.90407  4.54177  3.63728  2.60267  2.71853  2.95502  2.87589  2.55737
  2.80717  3.89294  5.12631  6.00746  6.12372  5.80230  5.01898  3.40679
  0.45450 -0.08700  0.02065  0.64843  2.20540  4.21912  5.58476  5.75041
  5.17265  4.16788  3.24747  2.64460  2.28503  1.72593  1.37610  1.63847
  2.64538  4.01006  5.00425  5.42091  5.02459  3.80593  2.39681  1.32981
 -0.24862 -0.29835  0.00000  0.81283  2.33214  3.64847  4.35318  4.59008
  4.30377  3.65991  2.78056  2.10802  1.84494  0.52754  0.74067  1.61716
  2.90300  3.89516  4.21447  4.06285  3.25166  1.98217  0.73946  0.07427
 -0.00243  0.25154  0.64043  1.82987  2.23143  3.02038  3.40280  3.66327
  3.46272  2.88893  2.08960  1.10049  0.22171  0.20862  1.52897  2.18595
  3.24376  3.60722  3.46170  2.91968  1.89590  0.84888  0.07066 -0.14460
  0.61764  0.94007  1.36444  1.88927  2.45691  2.92674  3.12469  3.16911
  2.76979  2.27377  1.52040  0.44049  0.15579  0.59084  1.66579  2.79477
  4.25589  3.78043  3.17669  2.45043  1.56512  0.65855  0.15650  0.23719
  1.09360  1.28549  1.45287  2.15281  2.67683  3.10177  3.39138  3.38497
  2.91731  2.17947  1.23582  0.43170  0.33793  1.00844  1.97383  3.11193
  3.84910  4.46392  3.41571  2.50787  1.73708  1.00733  0.64220  0.76295
  0.97094  1.11640  1.33640  1.77623  2.30465  3.21763  3.71128  3.69186
  3.21905  2.24277  1.31122  0.67238  0.74272  1.18578  2.24207  3.35415
  3.97657  4.05349  3.63266  2.88632  1.79270  1.23680  1.00391  1.05657
  0.98044  1.16708  1.33038  1.66969  2.23969  3.39508  3.86779  4.03243
  3.47590  2.52883  1.59193  1.02084  0.88051  1.46518  2.71203  3.68355
  4.17470  4.27471  3.85203  3.18916  1.80900  1.35925  0.95109  0.90998
  0.92229  1.06909  1.22608  1.53114  2.17810  3.49858  4.08708  4.23358
  3.81032  2.85593  1.89254  1.21833  1.28863  2.03059  3.37664  4.03661
  4.43079  4.53101  4.17385  3.43883  2.06053  1.24136  0.83440  0.79652
  1.01976  1.08264  1.20394  1.44647  2.14870  3.54162  4.22527  4.37836
  4.03304  3.13273  2.13407  1.61528  1.83300  2.92219  4.10899  3.89754
  4.43948  4.65256  4.38856  3.70570  1.97095  1.21515  0.89442  0.89767
%FLAG CMAP_PARAMETER_02                                                         
%COMMENT  Val CMAP                                                              
%FORMAT(8F9.5)                                                                  
 -2.01756 -1.73905 -0.84847 -0.46472  0.56763  1.48277  2.25636  2.19993
  1.90981  1.92836  2.09834  0.40342 -1.69535 -2.90033 -2.50948 -1.57682
 -0.64873 -0.15120 -0.28239 -0.73968 -0.94325 -1.11484 -1.15508 -2.03782
 -1.34105 -1.11818 -0.89418 -0.53817  0.12131  0.92443  1.83452  1.96102
  1.70243  1.69935  1.38644 -0.63952 -2.23904 -2.43926 -2.13880 -1.32255
 -0.42293 -0.09541 -0.22230 -0.57057 -0.62945 -0.77374 -0.70221 -1.35264
 -0.30513 -0.50219 -0.51144 -0.19462  0.20036  0.92772  1.73742  1.94165
  1.66054  1.57483  0.93993 -0.30497 -1.51733 -1.80347 -1.47901 -0.70849
  0.12800  0.42168  0.27324 -0.12805 -0.25468 -0.26176 -0.25964 -0.23486
  0.22080  0.11254 -0.09598 -0.02547  0.36470  1.04764  1.78065  1.94793
  1.64226  1.47878  0.87840  0.00733 -0.78419 -1.14640 -0.91232 -0.13181
  0.55113  0.92382  1.28488  0.38464  0.18091  0.23528  0.21156  0.24920
  0.97024  0.77699  0.11389  0.09390  0.43246  1.27421  2.11132  2.36347
  2.00982  1.63713  1.04527  0.37080 -0.23589 -0.73011 -0.44336  1.26834
  1.79252  1.22128  1.25826  1.13028  0.92625  1.82206  0.89856  0.91110
  1.70991  1.32299  0.33417  0.14944  1.16593  1.49896  3.19090  2.76539
  2.48088  1.89518  1.28911  0.61864  0.01777 -0.14494  0.22396  0.77031
  1.07240  1.26184  1.35849  1.28895  1.97069  1.48297  1.57305  1.85292
  1.48800  1.13328  0.11690  0.29064  0.85784  1.77367  2.59189  2.91705
  2.42216  1.76483  1.79629  0.86281  0.10283  0.37023  0.86569  0.94069
  1.01430  1.21124  1.35219  1.30023  1.22214  1.35322  1.48391  1.69070
  0.67909  0.57713  0.02502  0.46770  1.40409  2.27852  3.49476  2.78640
  1.95403  1.27900  0.55420 -0.02238  1.20682  1.29930  1.52554  1.64336
  1.76775  1.70570  1.67854  1.45650  1.09476  0.82649  1.19884  0.75282
  0.07073  0.30572  0.52146  1.36896  2.48099  3.33540  3.59124  2.88171
  1.76876  1.19799  0.32459  0.32422  0.95308  2.45034  2.37598  2.40673
  2.67534  2.65749  2.51708  2.14912  1.18076  0.39138  0.00000  0.07630
  0.04074  1.54419  1.96416  3.13362  4.31575  4.95477  4.44775  3.11538
  1.50508  0.72125  0.79846  1.33862  2.42257  3.24290  3.12154  3.35226
  3.78456  3.99241  3.82937  2.81100  1.25323  0.16589 -0.28260 -0.12977
  1.12864  3.90130  4.63426  5.77403  6.31577  5.96470  4.91642  3.16778
  2.26973  1.74060  2.27380  2.97981  3.51359  3.19033  3.33677  4.19992
  5.22362  5.87548  4.86276  2.93236  1.19785  0.28507  0.14742  0.63000
  3.72001  6.33863  5.35590  4.29996  4.26654  4.32352  3.98104  3.33460
  2.91813  3.53218  4.29596  4.51641  2.49249  1.90963  2.83865  4.63489
  4.97899  4.16045  3.39890  2.32070  1.48906  1.29139  1.60292  2.24778
  6.00854  3.89247  2.89440  2.55025  2.57681  3.10775  3.92241  4.01712
  4.49403  5.18578  3.70552  2.38215  2.01401  1.59381  3.04997  4.51111
  3.23799  2.70851  2.59259  2.38231  2.40214  2.94886  3.50773  4.54844
  4.51937  2.50940  1.61873  1.24925  1.66350  3.66266  4.55456  5.47628
  6.13567  4.06242  2.85443  2.03944  2.02600  2.52651  3.62142  2.70641
  1.97481  2.07470  2.56879  3.03541  3.69679  4.06367  4.65134  5.55831
  2.88814  0.52779  0.16551  0.26664  1.58420  3.71632  5.64144  6.08480
  4.85665  3.62841  2.86402  2.75331  3.09330  3.73213  2.16268  1.66846
  1.14682  2.60251  3.24104  4.65709  4.40085  4.67183  4.61862  3.96074
  1.69027  0.76750 -0.69979 -0.15185  2.22330  4.17638  5.53096  5.17628
  4.26174  3.52592  3.19619  4.19572  2.94549  1.11204  0.17610  0.05643
  0.98595  2.23581  3.45223  3.88084  3.96450  3.73252  3.28716  2.64029
  1.47850  0.63019 -0.95303 -0.13694  1.54363  3.47985  4.19958  4.05565
  3.90108  3.18085  3.58033  2.62660  2.22083 -0.31386 -0.74356 -0.27479
  1.00826  2.19607  2.74108  2.87658  2.77839  2.65101  2.37288  1.92155
  1.07215  0.66669 -0.89125 -0.20060  1.02999  2.38189  2.91480  2.77764
  2.48398  2.19059  2.01388  1.58231  0.53487 -1.19678 -1.18562 -0.14882
  0.98452  1.69506  1.85226  1.71204  1.57096  1.60872  1.52788  1.43156
  1.07875  1.04590 -0.55118 -0.28378  0.64179  1.53005  2.05887  1.60199
  1.69739  1.25571  1.02661  0.47784 -0.61980 -1.38623 -0.85945  0.33907
  1.15832  1.35313  1.15992  0.81644  0.76079  0.76522  0.89391  1.05876
  1.45117  1.22355  0.18022 -0.22437  0.39219  1.28115  1.89920  1.64643
  1.36145  1.15488  0.69505 -0.03464 -0.80651 -1.04055 -0.39746  0.64416
  1.21429  1.35414  1.10084  0.71349  0.62948  0.72070  1.07327  1.35814
  1.45821  1.01290  0.30532 -0.11668  0.26191  1.81248  2.13486  2.25298
  1.74419  1.24135  0.75222 -0.00108 -0.54822 -0.71040 -0.08108  1.02502
  1.44087  1.54881  1.35073  1.01930  0.87623  1.09706  1.50032  1.74125
  1.24172  0.70146  0.38540  0.25065  0.37446  1.32984  2.22978  2.81617
  2.19013  1.26923  0.57654  0.22218 -0.25813 -0.26505  0.64873  1.84887
  1.79747  1.73430  1.57205  1.21116  1.04895  1.15718  1.33818  1.58324
  0.52985  0.37156  0.33331  0.30703  0.70760  1.27012  2.34003  3.12435
  2.75444  1.71103  0.77398  0.27700  0.07276  0.30492  1.97301  3.06719
  2.42419  1.91835  1.82997  1.59237  1.96213  1.07834  0.58274  0.44102
 -1.78231 -0.90400 -0.83905  0.00646  1.08505  1.99726  2.71747  2.45290
  1.86533  2.24530  1.12274 -0.76075 -1.12759 -1.47736 -1.09815 -1.10064
 -0.11997  0.30194  0.03016 -0.49455 -0.85448 -1.11224 -0.54136 -0.66678
%FLAG CMAP_PARAMETER_03                                                         
%COMMENT  Leu CMAP                                                              
%FORMAT(8F9.5)                                                                  
 -0.86694 -0.26821  0.11903  0.36257  0.95573  1.67477  2.43156  2.60365
  2.27204  1.80613  1.46886  1.61233 -0.96663 -1.49770 -1.08239 -0.09973
  0.68400  0.98069  0.74771  0.20585 -0.44627 -0.94569 -1.07455 -1.03710
 -0.32646  0.18654  0.61372  0.67096  1.01304  1.68958  2.59064  2.69380
  2.62711  2.28315  1.55874 -0.12149 -1.21885 -1.44423 -0.97001 -0.05369
  0.80796  1.12834  0.84158  0.41540 -0.05618 -0.48333 -0.57243 -0.49018
 -0.00270  0.44349  0.67720  0.69907  0.96098  1.51827  2.31922  2.59766
  2.46815  2.10040  1.01494 -0.35138 -1.06078 -0.51379 -0.69064  0.13405
  0.94764  1.25044  1.05896  0.70807  1.27955  0.00478 -0.14861 -0.13199
  0.46773  1.06122  0.84151  0.87321  1.53577  2.26717  2.28379  2.61533
  2.48323  2.10062  0.99888 -0.16216 -0.70927 -0.70653 -0.29305  0.40855
  1.21244  1.57878  1.45953  1.15294  0.73992  0.44830  0.51887  0.42642
  1.08264  1.22032  1.01432  0.92883  1.19777  1.89909  2.63517  2.91989
  2.71483  2.15712  1.13870  0.10970 -0.35319 -0.45575 -0.07314  0.71696
  1.39933  1.70190  1.76612  1.54603  1.28907  0.96167  1.05593  0.99887
  1.28886  1.08719  1.25509  0.61945  1.07490  1.93759  3.19207  3.05501
  2.85024  2.25228  1.28855  0.30319 -0.32580 -0.33934  0.94330  1.01391
  1.36742  1.55398  1.68291  1.69903  1.58878  1.35670  1.38167  1.38984
  0.98482  0.77092  0.58293  0.75254  1.33157  2.19094  2.97361  3.31530
  2.98261  2.34181  1.68188  0.20860 -0.18920  0.15129  0.97347  1.18438
  1.41087  2.18263  1.74084  1.83977  2.49337  1.40782  1.29872  1.23230
  0.48495  0.51375  0.72118  1.16071  2.03516  2.76085  3.33781  3.33714
  3.21881  1.91348  0.71654 -0.06047  0.05722  0.95499  1.57463  1.97846
  2.20669  2.25753  2.16240  2.05082  1.46338  0.92763  0.63950  0.52464
  0.07954  0.44680  1.02424  2.02016  2.99245  3.73027  3.90871  3.36270
  2.34980  1.21384  0.31676  0.22259  0.86998  1.74017  2.65575  2.56314
  2.94846  3.04800  2.92362  2.53858  1.53008  0.44000  0.00000 -0.00769
  0.24993  1.09492  2.17567  3.43132  4.50566  5.05694  4.64546  3.50848
  2.15393  1.27464  0.97041  1.34987  2.11323  2.30548  2.56683  3.12183
  3.71616  4.15639  4.02019  3.11381  1.50702  0.51912 -0.20195 -0.08615
  1.52978  2.82371  4.12062  5.09490  6.15608  6.08176  5.03421  3.52597
  2.34959  2.18514  2.44731  2.85399  2.64346  2.42082  2.71715  3.68263
  4.79352  5.66725  5.08137  3.19151  1.34349  0.25042  0.36715  0.82954
  3.49877  5.10429  4.80281  4.54651  4.68704  4.66098  4.37663  3.68363
  3.39535  3.95518  3.96235  2.85930  2.21248  2.20453  2.53736  4.31396
  5.52110  4.69616  3.78755  2.61424  1.52261  1.35018  1.75048  2.53707
  5.65682  4.15269  3.35229  3.00261  3.08500  3.54523  4.16460  4.62833
  5.13779  5.01177  3.02054  1.47096  1.36914  1.36431  2.92161  6.08683
  3.79124  3.26901  3.87628  3.15138  2.56586  2.96443  3.52026  4.83005
  4.54702  3.10593  2.16146  1.79107  2.10872  3.47796  4.87594  5.92625
  6.01846  4.12483  2.27314  1.85210  1.40705  2.31574  3.63083  3.28348
  2.48395  2.41514  2.93210  3.56664  3.83230  4.13078  4.61915  5.21000
  2.54403  1.68952  0.97521  0.88413  2.02670  4.01998  5.83129  6.49399
  5.45501  4.03342  2.72981  3.04219  2.43764  2.97586  2.73313  1.73379
  1.55615  2.30112  3.86657  4.36600  4.57747  4.78312  4.62251  3.65331
  1.39094  0.80730  0.29380  0.53655  2.14327  4.35364  5.64162  5.52871
  4.81227  3.89474  3.02138  2.56961  2.36903  1.91970  1.04584  0.61644
  1.26738  2.48009  3.51320  4.14947  3.98350  3.59513  2.95805  2.05137
  0.59467  0.26702 -0.00118  0.34338  1.95569  3.71282  4.31538  4.26902
  3.93382  3.80334  2.45012  1.80769  1.23485  0.28708 -0.16539  0.11408
  1.10892  2.16939  3.27563  2.90643  2.66635  2.32593  1.63311  1.04332
 -0.00101 -0.07278 -0.15248  0.39936  1.35477  2.58696  2.88424  2.91922
  2.69118  2.08752  1.30318  0.53921 -0.47040 -1.05688 -0.84349  0.07495
  1.13508  1.90971  1.60384  1.52061  1.19284  0.82628  0.49692  0.18749
  0.52653 -0.01117  0.01170  0.35019  0.99208  1.68051  1.85145  1.71415
  1.38754  0.91039  0.24804 -0.73699 -1.51069 -1.53963 -0.72203  0.43100
  1.18026  1.23810  0.97321  0.69525  0.29409 -0.04217 -0.12688 -0.18077
  0.41738  0.42830  0.25395  0.41670  0.84705  1.54378  1.90242  1.75429
  1.39459  0.87970 -0.19758 -1.19662 -1.65765 -1.41581 -0.57110  0.57555
  1.30161  1.37911  1.15311  0.73096  0.18428  0.11942  0.12025  0.23185
  0.51056  0.47767  0.30339  0.39748  0.84570  1.55327  2.29045  2.38960
  1.92281  1.05703  0.33844 -0.94589 -1.40734 -1.22267 -0.28396  0.91594
  1.42889  1.47580  1.35177  1.37396  0.53214  0.53898  0.61490  0.64450
 -0.24761 -0.32226 -0.19849 -0.08985  1.01997  1.40580  2.20658  2.50290
  1.91878  0.83859 -0.21275 -0.98048 -1.44651 -1.19821  0.00869  1.25483
  1.43243  1.66446  1.63593  0.87150  0.53192  0.38847  0.31803  0.05867
 -0.50737 -1.45363 -0.79190  0.11592  0.23743  1.27007  2.22830  3.43018
  2.03991  0.82982 -0.28204 -0.30716 -1.28098 -0.47386  0.89069  1.08272
  1.18900  1.30124  1.20693  0.90441  0.47681 -0.17330 -0.62574 -1.08723
 -1.62255 -1.96136 -0.83933 -0.65406  0.11828  1.42624  2.54120  2.90447
  2.24826  1.86505 -0.18930 -0.85728 -0.87693 -1.06001 -1.16287  0.46816
  0.39155  1.80618  1.14253  0.79781  0.04909 -0.40498 -1.27362 -1.36635
%FLAG CMAP_PARAMETER_04                                                         
%COMMENT  PRO CMAP                                                              
%FORMAT(8F9.5)                                                                  
 -8.75751 -8.70567 -8.71923 -8.06498 -8.34855 -8.65942 -8.61255 -8.96343
 -8.72425 -8.73027 -8.00206 -8.69021 -8.28693 -8.65324 -8.82302 -8.18448
 -8.41685 -8.80151 -8.70094 -8.53053 -8.75377 -8.86638 -8.50509 -8.01082
 -8.77187 -8.73940 -8.66261 -8.90677 -9.06924 -8.63887 -7.81451 -7.16341
 -6.60542 -6.52662 -7.17952 -8.03381 -8.63601 -8.94480 -8.81277 -8.63859
 -7.86472 -6.93540 -7.11378 -7.02275 -7.31467 -7.34586 -7.17799 -7.85620
 -5.22647 -5.15037 -4.98780 -5.13754 -5.33451 -4.82744 -4.20622 -3.41249
 -2.98580 -3.06940 -3.72285 -4.71405 -5.39928 -5.45522 -5.23830 -4.83426
 -4.84841 -4.83945 -5.01358 -5.08121 -5.29478 -5.39394 -5.42201 -5.34520
 -2.63528 -2.61531 -2.23133 -2.09728 -2.35032 -1.81055 -1.14610 -0.43015
 -0.11029 -0.43642 -1.29900 -2.37678 -3.06813 -3.08683 -2.85132 -2.46945
 -2.09194 -2.00829 -2.13200 -2.22585 -2.45757 -2.72426 -2.91306 -2.79826
 -1.30630 -0.97037 -0.67553 -0.48439 -0.47298  0.09744  0.90710  1.67856
  1.78869  1.18509  0.10465 -0.95429 -1.77557 -2.02642 -1.80129 -1.30282
 -0.60900 -0.54189 -0.52494 -0.62734 -0.87227 -1.16429 -1.40325 -1.32862
 -0.28838 -0.29286 -0.05545  0.01374  0.18833  0.88685  1.88110  2.72301
  2.64392  1.80976  0.76838 -0.23772 -1.30866 -1.56111 -1.05594 -0.63462
 -0.27956 -0.12432  0.08300  0.08848  0.02441 -0.23536 -0.52571 -0.43355
 -0.10107 -0.10925  0.17861  0.46874  0.78386  1.52792  2.37292  3.19523
  2.94448  2.13146  1.04356 -0.13873 -0.96321 -0.82059 -0.33322 -0.30669
 -0.07750  0.24509  0.61203  0.77546  0.60883  0.16196  0.03025 -0.05960
  0.54240  0.73424  1.21584  1.97663  2.86196  3.36571  3.09521  2.89786
  2.65306  1.94911  0.87427  0.10091  0.29512  0.69644  0.77609  0.93694
  1.20253  1.21190  1.23792  1.16370  0.89360  0.32899  0.02924  0.15816
  0.93117  1.89831  2.92739  3.90919  4.66028  4.79265  4.30774  3.45574
  2.67462  1.77740  1.02956  0.85500  1.12685  1.40005  1.65428  2.00981
  2.49411  2.77553  2.72653  2.29924  1.30209  0.28787  0.00000  0.23904
  1.71372  3.17069  4.47459  5.34819  5.66978  5.61442  4.66872  3.50429
  2.46608  1.90184  1.95424  1.90806  1.75946  1.84931  2.08092  2.58532
  3.47075  4.05526  4.07457  2.94449  1.37584  0.18263  0.14274  0.72321
  2.93154  4.65664  5.81638  5.77271  5.70953  5.47038  4.31047  3.14909
  2.37257  2.54260  2.89806  2.29096  1.86624  1.70493  2.04297  2.91863
  4.12444  5.04419  4.44552  2.74661  1.09914  0.24758  0.62132  1.60919
  4.28791  5.74420  5.79671  5.16803  5.05413  4.48695  3.37932  2.59405
  2.54381  3.52801  3.10085  2.02404  1.30444  1.50932  1.70696  3.20804
  4.77364  5.01717  3.51828  1.80915  0.72960  0.85032  1.61355  2.81248
  5.10022  5.11605  4.30598  3.92413  3.37917  2.64150  2.42733  2.53172
  3.38712  3.74798  2.16043  0.80717  1.21776  0.25145  1.73628  3.39163
  4.52876  3.45959  2.15509  1.19505  1.15898  1.90043  2.79231  3.88367
  4.45196  3.70029  2.61706  1.82299  1.19526  1.47132  2.04669  2.98560
  3.87614  2.64572  0.79215  1.29417  0.57185  0.44864  1.83164  3.09417
  2.59096  1.51855  0.91401  1.05809  1.68925  2.43878  3.18205  4.00826
  2.72163  1.41184  0.04207 -0.81206 -0.92504  0.08798  1.44907  2.62605
  2.40258  0.87505 -0.68969 -1.36527 -0.96444 -0.10768  0.99527  0.71308
 -0.24748 -0.63365 -0.44523  0.32710  0.80503  1.32881  2.15503  3.28238
 -0.80511 -2.39777 -3.83456 -4.33430 -3.48052 -1.75445 -0.19983  0.60207
  0.06551 -1.07531 -2.16209 -2.48329 -2.40715 -2.05247 -2.16609 -3.19586
 -3.38809 -3.09350 -2.19949 -1.30642 -0.63336  0.28617  1.31525  0.58937
 -5.49419 -6.90233 -7.85445 -7.71328 -6.35345 -4.49678 -3.09411 -2.51174
 -2.73237 -3.57215 -4.35013 -5.04409 -5.50375 -5.86022 -6.64301 -6.80004
 -6.39815 -5.56010 -4.50638 -3.48952 -2.65640 -2.09936 -2.59104 -3.94783
 -4.95323 -5.81966 -5.21125 -5.74444 -5.56540 -5.11652 -5.21104 -6.68459
 -6.75332 -7.34507 -8.14475 -9.01762 -9.61284 -8.18605 -8.21980 -9.51019
 -8.69486 -8.13634 -7.49936 -6.76770 -5.79355 -6.63124 -7.48945 -8.89257
 -8.90818 -8.48907 -8.42313 -8.89309 -8.14630 -8.36733 -8.05899 -8.97334
 -8.08182 -8.40152 -8.88712 -8.44094 -8.96945 -8.84838 -8.06274 -8.04221
 -8.38659 -8.26564 -8.16867 -8.07604 -8.18975 -8.58300 -8.97423 -8.27557
 -8.58467 -8.84753 -8.42340 -8.80513 -8.29742 -8.94947 -8.12015 -8.36778
 -7.35387 -7.32522 -7.79483 -7.29000 -7.55762 -7.16439 -7.06554 -7.93809
 -7.42050 -7.29676 -7.26130 -7.35832 -7.63448 -7.16499 -7.15108 -7.79839
 -7.17886 -7.19451 -7.53222 -7.90130 -7.37702 -7.15717 -7.90496 -7.29665
 -7.60628 -7.95815 -7.07987 -7.00555 -7.24586 -7.75344 -7.50631 -7.32424
 -6.60700 -6.05537 -6.57198 -6.36398 -6.84789 -6.00007 -6.26382 -6.37899
 -6.97565 -6.79895 -6.81045 -6.38845 -6.75665 -6.50745 -6.34555 -6.97905
 -6.70335 -6.63155 -6.02445 -6.00075 -6.42685 -6.08775 -6.30235 -6.08385
 -4.99155 -4.10475 -4.44005 -4.52855 -4.24195 -4.38705 -4.89415 -4.12825
  0.72785  0.44055  0.25525  0.57015  0.50715  0.31935  0.02685  0.77055
  2.06855  1.95315  2.33365  3.28115  3.15315  4.20805  4.71215  4.07005
  8.99895  8.18825  9.28555  8.47075  7.81095  7.54885  7.86895  8.54445
  8.57285  8.51105  8.06095  8.24775  8.25665  8.34635  8.39995  8.38805
  8.69225  8.43795  8.69725  8.90195  8.97545  8.99285  8.67585  8.52795
  8.32625  8.65405  8.95355  8.25755  8.60965  8.25845  8.46825  8.12375
%FLAG CMAP_INDEX                                                                
%FORMAT(6I8)                                                                    
       5       7       9      24      26       3
      24      26      28      43      45       3
      43      45      47      63      65       3
      63      65      67      70      72       1
      70      72      74      91      93       3
      91      93     103     105     107       4
     105     107     109     121     123       2
     121     123     125     142     144       3
     142     144     146     158     160       2
