default_name
   165
   4.7140000   7.8530000  15.1950000   3.6440000   7.8200000  15.3990000
   3.4350000   7.0220000  16.1120000   3.1040000   7.6280000  14.4710000
   3.2000000   9.1400000  15.9760000   2.6910000   9.1930000  17.0930000
   3.3920000  10.2200000  15.2140000   3.8160000  10.1080000  14.3040000
   3.0090000  11.5370000  15.6570000   1.9350000  11.5840000  15.8360000
   3.7740000  12.0210000  16.8900000   4.7860000  12.3100000  16.5990000
   3.8830000  11.1910000  17.5910000   3.0980000  13.1830000  17.6070000
   2.6370000  13.8550000  16.8830000   2.0130000  12.6280000  18.5140000
   2.4400000  11.9760000  19.2770000   1.5090000  13.4500000  19.0230000
   1.2620000  12.0820000  17.9450000   4.0900000  13.9590000  18.4120000
   4.7290000  14.5410000  17.7400000   3.5700000  14.6530000  19.0810000
   4.7120000  13.2860000  19.0100000   3.3960000  12.4610000  14.5090000
   4.5000000  12.3380000  14.0090000   2.5240000  13.3490000  14.0710000
   1.6630000  13.4690000  14.5800000   2.7390000  14.2910000  12.9920000
   3.1520000  13.7660000  12.1300000   1.3950000  14.8720000  12.6190000
   0.9560000  15.2410000  13.5490000   1.5780000  15.7690000  12.0220000
   0.3420000  14.0870000  11.8780000   0.1980000  13.1280000  12.3770000
  -0.9490000  14.8690000  11.9810000  -0.8530000  15.8260000  11.4690000
  -1.2220000  15.0470000  13.0200000  -1.7560000  14.3030000  11.5150000
   0.7560000  13.8280000  10.4320000  -0.0650000  13.3500000   9.8990000
   1.0000000  14.7670000   9.9340000   1.6200000  13.1660000  10.3990000
   3.6890000  15.4330000  13.3340000   3.7490000  15.8400000  14.5030000
   4.3460000  16.0030000  12.3060000   4.1840000  15.6390000  11.3820000
   5.1080000  17.2440000  12.4060000   5.8120000  17.1680000  13.2350000
   5.8740000  17.4580000  11.0950000   6.5660000  16.6260000  10.9550000
   5.1590000  17.4280000  10.2700000   6.6740000  18.7510000  11.0070000
   7.6900000  19.0350000  11.9290000   7.9280000  18.3210000  12.7040000
   8.4270000  20.2270000  11.8400000   9.2240000  20.4280000  12.5420000
   8.1470000  21.1390000  10.8240000   8.7270000  22.0480000  10.7310000
   7.1330000  20.8560000   9.9020000   6.9100000  21.5640000   9.1220000
   6.3950000  19.6670000   9.9900000   5.6080000  19.4750000   9.2740000
   4.1210000  18.3890000  12.6910000   2.9800000  18.3920000  12.2080000
   4.5500000  19.3710000  13.4920000   5.4840000  19.3320000  13.8640000
   3.6340000  20.3930000  13.9910000   3.7400000  20.4280000  15.0760000
   2.6000000  20.1150000  13.7870000   3.8070000  21.8140000  13.4900000
   3.1450000  22.7200000  14.0110000   4.6750000  22.0730000  12.5190000
   5.1530000  21.3190000  12.0490000   4.8340000  23.4230000  12.0170000
   4.2960000  24.1150000  12.6480000   6.2850000  23.8220000  12.0680000
   6.4340000  24.7280000  11.4760000   6.9080000  23.0430000  11.6670000
   6.6460000  24.1320000  13.4960000   6.0830000  25.2500000  14.1100000
   5.4100000  25.8970000  13.5650000   6.3950000  25.5380000  15.4320000
   5.9720000  26.4000000  15.9260000   7.2690000  24.7120000  16.1300000
   7.5950000  25.0320000  17.4320000   8.2570000  24.4420000  17.7980000
   7.8360000  23.5920000  15.5250000   8.5120000  22.9580000  16.0770000
   7.5200000  23.3030000  14.1970000   7.9470000  22.4360000  13.7140000
   4.3240000  23.5260000  10.5960000   4.4760000  22.5710000   9.8310000
   3.6340000  24.6040000  10.2120000   3.1640000  25.6720000  11.0890000
   2.9220000  25.3540000  12.1010000   3.8550000  26.5170000  11.0840000
   1.8580000  26.0310000  10.3890000   1.1030000  25.2670000  10.5840000
   1.4940000  27.0110000  10.6980000   2.2450000  26.0170000   8.9190000
   2.7940000  26.9280000   8.6730000   1.3710000  25.9070000   8.2760000
   3.1500000  24.8080000   8.8470000   2.5770000  23.9340000   8.5320000
   4.3320000  25.0210000   7.9260000   5.3380000  25.6050000   8.3230000
   4.2030000  24.5410000   6.6990000   3.3310000  24.1120000   6.4260000
   5.2250000  24.6510000   5.6690000   5.9350000  25.4540000   5.8660000
   5.9410000  23.2860000   5.4570000   5.2100000  22.4800000   5.3750000
   6.7780000  23.3180000   4.2040000   7.4030000  22.4270000   4.1440000
   6.1340000  23.3290000   3.3250000   7.4170000  24.2010000   4.1930000
   6.8890000  22.9880000   6.6110000   6.3000000  22.8750000   7.5170000
   7.5900000  23.8120000   6.7490000   7.4370000  22.0640000   6.4310000
   4.3350000  24.9850000   4.4910000   3.2800000  24.3500000   4.3470000
   4.6890000  26.0030000   3.7010000   5.5720000  26.4720000   3.8430000
   3.9310000  26.3740000   2.5030000   3.1550000  25.6400000   2.2830000
   3.2980000  27.7400000   2.6330000   2.9180000  28.0430000   1.6550000
   4.0850000  28.4540000   2.8860000   2.1940000  27.9100000   3.6600000
   2.4890000  28.2030000   4.9960000   3.5180000  28.2640000   5.3230000
   1.4410000  28.4410000   5.8920000   1.6500000  28.6750000   6.9230000
   0.1190000  28.3790000   5.4330000  -0.9290000  28.6110000   6.3040000
  -0.6300000  28.9380000   7.1510000  -0.1710000  28.0800000   4.1010000
  -1.1980000  28.0380000   3.7720000   0.8750000  27.8420000   3.2220000
   0.6640000  27.6250000   2.1840000   4.8910000  26.4380000   1.3220000
   5.9950000  26.9610000   1.4990000   4.5550000  25.9120000   0.1480000
   3.6080000  25.6070000   0.0040000   5.4160000  26.0330000  -1.0200000
   6.4570000  25.8720000  -0.7500000   5.0050000  25.0340000  -2.1850000
   5.7560000  25.1200000  -2.9730000   5.0630000  23.6100000  -1.6130000
   5.0640000  22.8970000  -2.4320000   5.9730000  23.4790000  -1.0300000
   4.2020000  23.4220000  -0.9750000   3.6370000  25.3460000  -2.7900000
   3.6150000  26.3700000  -3.1720000   2.8650000  25.2350000  -2.0320000
   3.4380000  24.6630000  -3.6130000   5.3380000  27.4890000  -1.5480000
   4.4020000  28.2520000  -1.2500000   6.0740000  27.7750000  -2.6250000
   6.6370000  27.0460000  -3.0400000   6.0870000  29.0980000  -3.2140000
   6.4410000  29.8210000  -2.4780000   6.7510000  29.1050000  -4.0780000
   5.0790000  29.3660000  -3.5290000
